data_lammps (written by ASE) 

55 	 atoms 
1  atom types
0.0 80.000000000  xlo xhi
0.0 80.000000000  ylo yhi
0.0 80.000000000  zlo zhi


Atoms 

     1   1 0.0000 39.932500000 37.616800000 36.029100000
     2   1 0.0000 37.890000000 39.636200000 35.103600000
     3   1 0.0000 37.253800000 38.112700000 39.476300000
     4   1 0.0000 39.862700000 39.074400000 38.221700000
     5   1 0.0000 39.282800000 36.387600000 38.426200000
     6   1 0.0000 35.470800000 39.159500000 35.789100000
     7   1 0.0000 35.260500000 39.627800000 38.260000000
     8   1 0.0000 37.408000000 37.778500000 36.904100000
     9   1 0.0000 38.522200000 42.231200000 35.422800000
    10   1 0.0000 37.691900000 40.506100000 37.719600000
    11   1 0.0000 38.341200000 42.042900000 39.949300000
    12   1 0.0000 35.877900000 41.636700000 36.259000000
    13   1 0.0000 35.683400000 42.212600000 39.067300000
    14   1 0.0000 37.489800000 43.450500000 37.552000000
    15   1 0.0000 39.526200000 44.543500000 39.075700000
    16   1 0.0000 39.660400000 44.487800000 36.379600000
    17   1 0.0000 38.499500000 36.257000000 40.884900000
    18   1 0.0000 37.257000000 38.073800000 42.380700000
    19   1 0.0000 39.143500000 39.387900000 44.036100000
    20   1 0.0000 38.990300000 39.528900000 41.025100000
    21   1 0.0000 39.214100000 41.748500000 42.735300000
    22   1 0.0000 36.258800000 40.239400000 40.762900000
    23   1 0.0000 36.669000000 42.735300000 41.896800000
    24   1 0.0000 39.151600000 44.192100000 41.672400000
    25   1 0.0000 36.898800000 40.510100000 43.281900000
    26   1 0.0000 39.960200000 37.221700000 42.755900000
    27   1 0.0000 36.979400000 44.458500000 39.999800000
    28   1 0.0000 42.320600000 38.886300000 36.727600000
    29   1 0.0000 44.845400000 40.693400000 39.197100000
    30   1 0.0000 41.845500000 36.575000000 38.031000000
    31   1 0.0000 44.110900000 38.116200000 38.544500000
    32   1 0.0000 40.404800000 40.296900000 35.584800000
    33   1 0.0000 41.353000000 42.822100000 35.360600000
    34   1 0.0000 42.974200000 40.715900000 34.868400000
    35   1 0.0000 42.246500000 40.158400000 39.287700000
    36   1 0.0000 42.987900000 41.773500000 37.255800000
    37   1 0.0000 40.169200000 42.015500000 37.756200000
    38   1 0.0000 43.596700000 43.123100000 39.570100000
    39   1 0.0000 41.870800000 44.198200000 37.871400000
    40   1 0.0000 44.766500000 39.917400000 36.676300000
    41   1 0.0000 41.172500000 37.854500000 40.307400000
    42   1 0.0000 40.954800000 35.336600000 40.602700000
    43   1 0.0000 43.396600000 36.208500000 40.239000000
    44   1 0.0000 42.597600000 37.091200000 42.631300000
    45   1 0.0000 43.630100000 39.594000000 43.751700000
    46   1 0.0000 43.952200000 38.783000000 41.114800000
    47   1 0.0000 41.515000000 38.386700000 44.688500000
    48   1 0.0000 41.412500000 39.850700000 42.243300000
    49   1 0.0000 41.045900000 42.305900000 40.451600000
    50   1 0.0000 43.637400000 42.239500000 44.125800000
    51   1 0.0000 41.737400000 44.856700000 40.657700000
    52   1 0.0000 43.804700000 44.028700000 42.089900000
    53   1 0.0000 41.490400000 43.241100000 42.957500000
    54   1 0.0000 41.340800000 41.059500000 44.611000000
    55   1 0.0000 43.579500000 41.433000000 41.633500000
