55
node: None  step: -1 potential:     -188.131530 chi_differ:       14.056069 
Au        39.614310        38.064125        36.336835
Au        37.830710        39.888685        35.123825
Au        42.290010        38.661405        36.456255
Au        37.074470        37.819405        39.578115
Au        41.734710        36.776505        40.525815
Au        40.389610        37.970075        42.644315
Au        39.867910        38.294965        39.185915
Au        38.647590        36.110175        38.047735
Au        40.427510        34.615115        39.349915
Au        44.345910        36.272555        40.848515
Au        41.422910        36.521895        37.795835
Au        43.620410        37.992985        38.795915
Au        35.239090        39.500385        35.626525
Au        35.400450        39.646885        38.294865
Au        39.009520        36.317995        40.856215
Au        42.997610        37.155395        43.018815
Au        36.893710        37.752295        36.800425
Au        43.565010        39.710385        43.860715
Au        44.374710        38.850705        41.363615
Au        37.685380        38.264805        42.247015
Au        41.492910        38.333465        45.062315
Au        38.965360        39.352605        44.490515
Au        40.446010        40.351285        35.082185
Au        41.499510        42.903685        35.461385
Au        43.111110        40.747785        34.937685
Au        38.731200        42.556585        35.248455
Au        39.328310        40.114385        41.113115
Au        41.876610        40.096985        38.772515
Au        41.949310        40.200585        41.748315
Au        38.072190        39.917785        37.862625
Au        43.356110        41.955685        37.318605
Au        38.035780        41.998585        39.620215
Au        40.868410        42.199385        40.110015
Au        38.858740        41.824685        43.177015
Au        40.003710        41.757085        37.486955
Au        36.373850        41.681685        36.663575
Au        35.381170        42.223385        39.297415
Au        36.238600        40.114685        40.844615
Au        36.841380        44.494185        39.859615
Au        39.390910        45.384885        38.964015
Au        43.476710        43.134985        39.687515
Au        41.554710        44.007085        37.966445
Au        43.429210        42.398285        44.229315
Au        39.869810        44.977785        36.103405
Au        41.533510        44.894385        40.611415
Au        43.647910        44.138785        42.160515
Au        37.893910        43.731385        37.488955
Au        36.579990        42.641685        41.866715
Au        39.039130        43.943585        41.348215
Au        36.619450        40.422685        43.536315
Au        41.221910        43.078985        42.735715
Au        41.161310        40.925085        44.367515
Au        44.760910        39.638285        36.802545
Au        44.581910        40.609285        39.295815
Au        44.312610        41.480885        41.825215
