ITEM: TIMESTEP
0
ITEM: NUMBER OF ATOMS
55
ITEM: BOX BOUNDS pp pp pp
0.0000000000000000e+00 8.0000000000000000e+01
0.0000000000000000e+00 8.0000000000000000e+01
0.0000000000000000e+00 8.0000000000000000e+01
ITEM: ATOMS id type x y z vx vy vz fx fy fz q 
1 1 39.9325 37.6168 36.0291 0 0 0 -0.000310112 -0.0003755 -0.000432722 0 
2 1 37.89 39.6362 35.1036 0 0 0 -7.98133e-05 0.000391791 6.24628e-05 0 
3 1 37.2538 38.1127 39.4763 0 0 0 0.000136455 -0.000283831 -9.80578e-05 0 
4 1 39.8627 39.0744 38.2217 0 0 0 -4.09957e-05 0.000191346 0.000569829 0 
5 1 39.2828 36.3876 38.4262 0 0 0 1.03074e-05 6.52339e-05 -0.000510375 0 
6 1 35.4708 39.1595 35.7891 0 0 0 -0.000131286 -0.0002643 -0.000232816 0 
7 1 35.2605 39.6278 38.26 0 0 0 -0.00061269 -0.000357766 0.000161815 0 
8 1 37.408 37.7785 36.9041 0 0 0 -0.000763734 0.000382172 -0.000149611 0 
9 1 38.5222 42.2312 35.4228 0 0 0 6.93544e-05 -0.000155678 -2.6955e-05 0 
10 1 37.6919 40.5061 37.7196 0 0 0 0.00056488 0.000126319 0.000386719 0 
11 1 38.3412 42.0429 39.9493 0 0 0 1.32995e-05 -1.5827e-05 -0.000477572 0 
12 1 35.8779 41.6367 36.259 0 0 0 6.17765e-05 -0.000330432 7.44942e-05 0 
13 1 35.6834 42.2126 39.0673 0 0 0 0.000120787 -0.000150219 4.52924e-05 0 
14 1 37.4898 43.4505 37.552 0 0 0 -0.000218225 1.92096e-05 0.000297253 0 
15 1 39.5262 44.5435 39.0757 0 0 0 -0.000359951 0.000178238 -0.00016443 0 
16 1 39.6604 44.4878 36.3796 0 0 0 -0.000117848 0.000318721 -0.000238345 0 
27 1 36.9794 44.4585 39.9998 0 0 0 3.05764e-05 0.000138477 -5.93016e-05 0 
17 1 38.4995 36.257 40.8849 0 0 0 -0.000821743 -0.000220669 0.000506496 0 
18 1 37.257 38.0738 42.3807 0 0 0 -0.00011892 -0.000314358 -0.00017189 0 
19 1 39.1435 39.3879 44.0361 0 0 0 -8.91983e-05 0.0002294 0.000184374 0 
20 1 38.9903 39.5289 41.0251 0 0 0 0.000624551 1.0763e-05 0.000256749 0 
21 1 39.2141 41.7485 42.7353 0 0 0 8.71203e-05 -0.000324755 0.000162402 0 
22 1 36.2588 40.2394 40.7629 0 0 0 -0.000142282 0.000494653 -0.000195261 0 
23 1 36.669 42.7353 41.8968 0 0 0 -0.000139165 -0.000312412 7.35737e-05 0 
24 1 39.1516 44.1921 41.6724 0 0 0 -0.000113303 0.000207531 -0.000243601 0 
25 1 36.8988 40.5101 43.2819 0 0 0 0.000211202 -8.74681e-05 -0.000253511 0 
26 1 39.9602 37.2217 42.7559 0 0 0 3.05661e-05 3.07841e-05 -8.20799e-05 0 
28 1 42.3206 38.8863 36.7276 0 0 0 0.000452051 -0.00013185 0.000204213 0 
29 1 44.8454 40.6934 39.1971 0 0 0 0.000683823 -0.000272098 0.000236112 0 
30 1 41.8455 36.575 38.031 0 0 0 0.000141371 -0.000103529 -0.000349982 0 
31 1 44.1109 38.1162 38.5445 0 0 0 -0.000428074 -4.92165e-05 -2.64224e-05 0 
32 1 40.4048 40.2969 35.5848 0 0 0 1.50555e-05 0.000162532 -0.000372898 0 
33 1 41.353 42.8221 35.3606 0 0 0 3.25506e-05 0.00029712 -0.000209592 0 
34 1 42.9742 40.7159 34.8684 0 0 0 -9.3068e-05 -0.000112539 0.000169898 0 
35 1 42.2465 40.1584 39.2877 0 0 0 7.19652e-05 -0.000719757 -0.00018529 0 
36 1 42.9879 41.7735 37.2558 0 0 0 0.000286395 0.000207495 3.5838e-05 0 
37 1 40.1692 42.0155 37.7562 0 0 0 -0.000251034 -0.000323003 0.000559137 0 
38 1 43.5967 43.1231 39.5701 0 0 0 0.000380827 2.79854e-05 0.000152728 0 
39 1 41.8708 44.1982 37.8714 0 0 0 -4.41556e-05 0.00027481 9.17441e-05 0 
40 1 44.7665 39.9174 36.6763 0 0 0 -4.30216e-05 6.75002e-05 -8.81682e-05 0 
41 1 41.1725 37.8545 40.3074 0 0 0 -0.000495358 0.00166965 -0.000275827 0 
42 1 40.9548 35.3366 40.6027 0 0 0 -2.69561e-05 -0.000910597 -1.39547e-05 0 
43 1 43.3966 36.2085 40.239 0 0 0 0.000228612 -0.000233959 -1.28188e-06 0 
44 1 42.5976 37.0912 42.6313 0 0 0 -6.72038e-05 0.000178889 0.000567768 0 
45 1 43.6301 39.594 43.7517 0 0 0 8.75112e-05 4.21168e-05 5.07378e-05 0 
46 1 43.9522 38.783 41.1148 0 0 0 0.000524255 0.000372771 5.80375e-05 0 
47 1 41.515 38.3867 44.6885 0 0 0 6.426e-06 -0.000213104 0.000202136 0 
48 1 41.4125 39.8507 42.2433 0 0 0 0.00012803 0.000188544 -0.000124209 0 
49 1 41.0459 42.3059 40.4516 0 0 0 0.000306362 -7.68411e-05 -0.000362617 0 
50 1 43.6374 42.2395 44.1258 0 0 0 -0.000331821 0.000168351 -0.000275911 0 
51 1 41.7374 44.8567 40.6577 0 0 0 5.86205e-05 -0.000242946 0.000129783 0 
52 1 43.8047 44.0287 42.0899 0 0 0 -0.000259324 0.000221087 -3.79507e-05 0 
53 1 41.4904 43.2411 42.9575 0 0 0 0.000309116 -0.000180551 -0.000127219 0 
54 1 41.3408 41.0595 44.611 0 0 0 3.11558e-05 4.57831e-05 1.57982e-05 0 
55 1 43.5795 41.433 41.6335 0 0 0 0.00039428 5.39383e-05 0.00053246 0 
ITEM: TIMESTEP
100
ITEM: NUMBER OF ATOMS
55
ITEM: BOX BOUNDS pp pp pp
0.0000000000000000e+00 8.0000000000000000e+01
0.0000000000000000e+00 8.0000000000000000e+01
0.0000000000000000e+00 8.0000000000000000e+01
ITEM: ATOMS id type x y z vx vy vz fx fy fz q 
1 1 39.9317 37.6162 36.0283 -0.0485306 -0.0287309 -0.0376187 7.46601e-05 0.00709653 0.00685539 0 
2 1 37.8898 39.6372 35.1038 -0.012916 0.0551126 0.0114977 -9.4382e-05 -0.00176198 0.000314825 0 
3 1 37.2542 38.1121 39.4762 0.0241211 -0.0289074 -0.00570073 0.00055892 0.00362791 0.00230765 0 
4 1 39.8626 39.0747 38.2226 -0.00722352 0.0138263 0.0430453 0.000369227 -0.00335443 -0.0102682 0 
5 1 39.2829 36.3879 38.4252 0.00374495 0.0182758 -0.0504313 -0.000366853 0.00159562 0.00702823 0 
6 1 35.4703 39.1589 35.7885 -0.0284652 -0.0341389 -0.0309501 -0.00211402 0.00166211 0.00110151 0 
7 1 35.2593 39.6269 38.2603 -0.0632165 -0.0483792 0.0133392 0.00780136 0.0017576 -0.00289902 0 
8 1 37.4062 37.7795 36.9038 -0.0996503 0.0544683 -0.0168683 0.00523598 -0.00187986 0.00174898 0 
9 1 38.5224 42.231 35.4229 0.0147323 -0.00959797 0.00789265 0.000806433 0.0034339 0.00263442 0 
10 1 37.6928 40.5063 37.7205 0.044943 0.00651175 0.0489106 -0.0097913 -0.00299159 -0.00239789 0 
11 1 38.3413 42.043 39.9485 0.00839625 0.00462815 -0.0396945 0.00157435 0.0016758 0.00800033 0 
12 1 35.8781 41.6357 36.2593 0.0153049 -0.058947 0.0184036 0.000807301 -0.00095464 0.00106889 0 
13 1 35.6836 42.2122 39.0673 0.007499 -0.0218955 0.00123595 -0.00259501 0.000795713 -0.00137689 0 
14 1 37.4893 43.4506 37.5525 -0.0253238 0.00354039 0.0251612 0.00206772 6.44303e-05 -0.00477071 0 
15 1 39.5254 44.544 39.0752 -0.0421222 0.026995 -0.0288955 0.00336159 -0.000339334 -0.000398622 0 
16 1 39.6601 44.4884 36.3791 -0.0153009 0.0294871 -0.0265935 0.000640638 -0.00444689 0.00258871 0 
27 1 36.9794 44.4588 39.9998 -0.000393301 0.0176483 -0.000254859 -0.00129653 -0.00125337 0.00189255 0 
17 1 38.4978 36.2563 40.8859 -0.0882132 -0.0391485 0.0526537 0.0092631 -0.00106975 -0.00661279 0 
18 1 37.2568 38.0731 42.3802 -0.0134349 -0.0361146 -0.0296443 0.00120082 0.00311659 -0.000283755 0 
19 1 39.1434 39.3883 44.0366 -0.00415617 0.0193348 0.0272886 0.00234572 -0.00396204 -0.00085045 0 
20 1 38.9914 39.529 41.0258 0.0542883 0.00451042 0.0370143 -0.00970603 0.000656516 -0.000950427 0 
21 1 39.2144 41.748 42.7355 0.0169597 -0.0255474 0.0111812 0.000534198 0.0055932 -0.00318234 0 
22 1 36.2586 40.2403 40.7623 -0.00865372 0.0485294 -0.0344428 0.00314106 -0.00718552 -0.00066596 0 
23 1 36.6688 42.7346 41.8969 -0.0113452 -0.0372699 0.00214408 0.00237161 0.00300049 -0.00213236 0 
24 1 39.1514 44.1924 41.6718 -0.0134234 0.0122645 -0.0364075 0.00117117 -0.00456446 0.000597778 0 
25 1 36.8993 40.5098 43.2813 0.026685 -0.0201881 -0.0368357 -0.00143958 -0.00144785 0.000816445 0 
26 1 39.9603 37.2218 42.7555 0.00598086 0.00622684 -0.0256885 -0.000248505 0.000642834 -0.00224651 0 
28 1 42.3213 38.886 36.7279 0.031841 -0.0174662 0.0128455 -0.00869703 0.00073013 -0.00433597 0 
29 1 44.8469 40.6927 39.1977 0.0852056 -0.0383956 0.0335738 -0.00528363 0.00117616 -0.00113002 0 
30 1 41.8457 36.5748 38.0305 0.00655559 -0.0130809 -0.0249888 -0.00345875 0.000631859 0.0058879 0 
31 1 44.11 38.116 38.5446 -0.0512513 -0.0156498 0.00687215 0.00419859 -0.00134747 0.00199554 0 
32 1 40.405 40.2972 35.5841 0.0104863 0.0132554 -0.038175 0.00142991 -0.00276332 0.00477187 0 
33 1 41.353 42.8228 35.3604 -0.00111411 0.0376683 -0.00835011 -0.00109107 -0.00238201 0.00551969 0 
34 1 42.9739 40.7157 34.8689 -0.0162776 -0.0118406 0.0261099 -7.55698e-05 0.00156804 -0.000173404 0 
35 1 42.2471 40.1571 39.2872 0.0379172 -0.0688779 -0.0308255 0.00544575 0.00979475 0.000210304 0 
36 1 42.9885 41.7741 37.256 0.0326725 0.0340174 0.0142409 -0.00267082 -1.32809e-05 0.00164322 0 
37 1 40.1689 42.0149 37.7572 -0.0144172 -0.030771 0.0502069 0.00551685 0.00447911 -0.00882224 0 
38 1 43.5977 43.123 39.5704 0.0549383 -0.00539025 0.017505 -0.00135479 -0.00206472 -0.00149527 0 
39 1 41.8706 44.1987 37.8717 -0.014923 0.0252189 0.015469 -0.00137149 -0.00418591 0.000431236 0 
40 1 44.7665 39.9176 36.6762 -0.00213935 0.0133907 -0.00539908 0.000504791 0.000472511 0.00247044 0 
41 1 41.1716 37.857 40.3069 -0.0462277 0.120422 -0.0227302 0.00689951 -0.0288774 0.0044581 0 
42 1 40.9547 35.3355 40.6025 -0.00730384 -0.046124 -0.0173802 -0.00152318 0.0194846 -0.00298457 0 
43 1 43.3965 36.2083 40.2392 -0.0122968 -0.00908101 0.0121562 -0.0091624 0.00564989 0.00273023 0 
44 1 42.5974 37.0918 42.6323 -0.0101257 0.0362248 0.0482746 0.000528168 0.0017346 -0.00872527 0 
45 1 43.6303 39.594 43.7519 0.00985178 -0.000400583 0.0115145 -0.000826024 -0.00127426 0.000982914 0 
46 1 43.9534 38.7837 41.115 0.0686115 0.0368271 0.0128421 -0.00334076 -0.0048753 0.000841526 0 
47 1 41.515 38.3863 44.689 -0.00344835 -0.0240692 0.024877 -0.00108166 0.0023507 -0.00167448 0 
48 1 41.413 39.8512 42.2432 0.0317925 0.0310616 -0.00308602 0.00215193 -5.61183e-05 0.00301956 0 
49 1 41.0467 42.3056 40.4507 0.046517 -0.0152543 -0.0510131 -0.000528325 -0.000838093 0.00156855 0 
50 1 43.6367 42.24 44.1254 -0.0362561 0.0277053 -0.01992 0.00357727 6.9498e-05 0.00510176 0 
51 1 41.7374 44.8561 40.6579 3.21395e-05 -0.031542 0.00930505 -0.00208779 0.00173342 -0.00275156 0 
52 1 43.8042 44.0294 42.0898 -0.0253223 0.0422477 -0.00729089 0.00340898 0.001071 -0.000196456 0 
53 1 41.4909 43.2406 42.9571 0.0218457 -0.0268079 -0.0251929 -0.00572189 0.000399646 -0.0011087 0 
54 1 41.3408 41.0595 44.6111 0.000748454 -0.00184169 0.0066673 -0.000844299 -0.00194565 0.00112394 0 
55 1 43.5806 41.4331 41.6345 0.0618014 0.00605911 0.0521496 -0.000215947 -0.000229851 -0.00727861 0 
ITEM: TIMESTEP
200
ITEM: NUMBER OF ATOMS
55
ITEM: BOX BOUNDS pp pp pp
0.0000000000000000e+00 8.0000000000000000e+01
0.0000000000000000e+00 8.0000000000000000e+01
0.0000000000000000e+00 8.0000000000000000e+01
ITEM: ATOMS id type x y z vx vy vz fx fy fz q 
1 1 39.8175 37.5938 35.9808 -1.9294 0.0578857 -0.450064 0.0327849 0.419 0.332405 0 
2 1 37.8581 39.7525 35.1326 -0.548793 1.72727 0.493476 -0.000553114 -0.280366 -0.00901212 0 
3 1 37.3141 38.0662 39.4775 1.03339 -0.586897 0.156803 -0.00230876 0.183493 0.121026 0 
4 1 39.8526 39.0903 38.2626 -0.0346728 0.164736 0.11525 0.154022 -0.0772481 -0.531862 0 
5 1 39.2829 36.438 38.3509 -0.148174 0.849394 -0.854551 -0.152988 -0.0392745 0.390452 0 
6 1 35.386 39.0887 35.7194 -1.66176 -1.08455 -1.20338 -0.219581 0.119743 -0.037533 0 
7 1 35.1602 39.5234 38.2726 -1.20697 -1.65154 0.0248863 0.462168 0.126567 -0.173338 0 
8 1 37.2083 37.891 36.8774 -2.93786 1.65435 -0.275779 0.457837 -0.269113 0.183407 0 
9 1 38.5616 42.2308 35.4569 0.69648 0.235267 0.709732 0.0179419 0.232854 0.112843 0 
10 1 37.7397 40.5035 37.8226 0.265855 -0.208837 1.60292 -0.494908 -0.148164 -0.149384 0 
11 1 38.3714 42.0655 39.9052 0.611411 0.521857 -0.232165 0.0887103 0.133954 0.486322 0 
12 1 35.9149 41.4963 36.3057 0.555769 -2.27931 0.777382 -0.100189 0.142055 -0.0290968 0 
13 1 35.6843 42.1697 39.0607 -0.173516 -0.555509 -0.229741 -0.182101 0.192835 -0.116132 0 
14 1 37.4423 43.4586 37.583 -0.681984 0.121989 0.247196 0.116656 -0.0216564 -0.258082 0 
15 1 39.4476 44.6049 39.0068 -1.10348 1.00296 -1.13647 0.222372 -0.0445819 0.0458868 0 
16 1 39.6273 44.5331 36.3335 -0.531067 0.568325 -0.601811 0.0301553 -0.170612 0.174898 0 
17 1 38.3462 36.1564 40.9667 -2.06176 -1.77034 0.96625 0.508072 -0.0468803 -0.389808 0 
18 1 37.2322 38.0075 42.3115 -0.358407 -0.929093 -1.10679 0.056428 0.183966 0.0849521 0 
19 1 39.1491 39.4083 44.0921 0.256615 0.0918487 0.821578 0.151071 -0.234916 -0.135621 0 
20 1 39.0605 39.5448 41.1055 0.61558 0.34626 1.25088 -0.53559 0.0771245 -0.126918 0 
21 1 39.2556 41.7209 42.7437 0.669267 -0.161879 0.0062882 -0.0540903 0.280849 -0.108356 0 
22 1 36.2574 40.3046 40.679 0.148191 0.515153 -1.38428 0.154209 -0.586189 0.0644232 0 
23 1 36.6565 42.6684 41.889 -0.0751109 -0.863234 -0.243043 0.12661 0.274767 -0.0963164 0 
24 1 39.1286 44.194 41.5914 -0.281258 -0.203901 -1.27106 0.110594 -0.203944 0.121143 0 
25 1 36.9536 40.4532 43.2004 0.837002 -1.04063 -1.29545 -0.0923437 -0.0599409 0.0964692 0 
26 1 39.9684 37.2422 42.6858 0.0214207 0.398899 -1.20638 -0.128776 0.0358846 0.0127391 0 
27 1 36.969 44.49 40.0093 -0.29045 0.395688 0.232082 -0.110872 -0.140605 0.0550373 0 
28 1 42.3445 38.8486 36.7307 -0.0605652 -0.614212 -0.235182 -0.419658 0.0180601 -0.270714 0 
29 1 45.0139 40.6111 39.2673 2.48995 -1.27725 1.05328 -0.363591 0.12708 -0.145294 0 
30 1 41.8399 36.5471 38.0015 -0.297988 -0.453262 -0.279523 -0.186455 0.0194022 0.190304 0 
31 1 44.0218 38.0724 38.5695 -1.05201 -0.816684 0.466775 0.484955 -0.0798668 0.0231523 0 
32 1 40.4339 40.3118 35.5241 0.449659 0.0980345 -0.734391 -0.0769949 -0.142548 0.277095 0 
33 1 41.3468 42.8942 35.3739 -0.0964985 1.01057 0.5255 0.0240199 -0.214742 0.266982 0 
34 1 42.9382 40.7001 34.9287 -0.525282 -0.10253 0.98286 0.104713 0.171004 -0.0503499 0 
35 1 42.3652 40.0556 39.2206 2.18406 -1.09298 -1.00629 0.105611 0.633549 0.154185 0 
36 1 43.0499 41.8517 37.2973 0.894084 1.25865 0.738137 -0.155174 -0.0793186 0.0145244 0 
37 1 40.1678 41.9697 37.8179 0.280036 -0.512149 0.427413 0.272047 0.24765 -0.597637 0 
38 1 43.7172 43.0992 39.6028 1.9072 -0.48525 0.48521 -0.146755 -0.0612194 -0.0559819 0 
39 1 41.8307 44.2313 37.9121 -0.668746 0.290488 0.720015 0.0315085 -0.25533 0.0158369 0 
40 1 44.7602 39.9506 36.6839 -0.165787 0.548381 0.392916 -0.0685841 -0.0263952 0.266621 0 
41 1 41.1048 37.9867 40.2796 -0.711808 1.01586 -0.227424 0.423478 -1.06474 0.220888 0 
42 1 40.9215 35.3269 40.5463 -0.785749 0.540286 -1.05076 -0.223859 0.577549 -0.0693009 0 
43 1 43.3242 36.2171 40.284 -1.47359 0.379679 0.899167 -0.172269 0.198538 0.116281 0 
44 1 42.5807 37.187 42.6968 -0.158837 1.68012 0.688642 0.136447 0.0290491 -0.381867 0 
45 1 43.6488 39.5886 43.7868 0.273112 -0.081327 0.681491 -0.0404235 0.0325552 0.0803206 0 
46 1 44.0931 38.841 41.1505 2.13642 0.703 0.645612 -0.258575 -0.262842 0.030924 0 
47 1 41.4996 38.3461 44.7366 -0.334703 -0.495639 0.699708 -0.0668358 0.192635 -0.11271 0 
48 1 41.498 39.9217 42.2488 1.49757 1.14303 0.136208 0.0207824 -0.0714517 0.00955389 0 
49 1 41.1531 42.2633 40.3424 1.78608 -0.798368 -1.6789 -0.0346375 -0.0709172 0.190518 0 
50 1 43.5735 42.3039 44.1088 -0.852745 1.04177 0.00106968 0.222525 -0.0637204 0.262244 0 
51 1 41.7243 44.7949 40.6602 -0.350173 -0.871515 -0.181788 -0.117013 0.18533 -0.218219 0 
52 1 43.7651 44.13 42.0724 -0.467569 1.6278 -0.279952 0.190079 -0.12879 0.023651 0 
53 1 41.5097 43.18 42.8911 0.0468371 -1.00025 -1.17879 -0.241454 0.0414798 -0.0399598 0 
54 1 41.3383 41.0439 44.6352 -0.0669839 -0.360226 0.504133 -0.0162209 -0.0818907 0.0842702 0 
55 1 43.7249 41.4486 41.712 2.4377 0.307807 0.891112 -0.0429955 0.0502921 -0.405864 0 
ITEM: TIMESTEP
300
ITEM: NUMBER OF ATOMS
55
ITEM: BOX BOUNDS pp pp pp
0.0000000000000000e+00 8.0000000000000000e+01
0.0000000000000000e+00 8.0000000000000000e+01
0.0000000000000000e+00 8.0000000000000000e+01
ITEM: ATOMS id type x y z vx vy vz fx fy fz q 
1 1 39.5708 37.7166 35.9954 -2.73474 2.44036 0.617673 0.0739056 0.150352 -0.0258284 0 
2 1 37.7865 39.8716 35.1925 -0.824218 -0.0596802 0.624683 -0.0191072 -0.514937 -0.0139992 0 
3 1 37.4474 38.0271 39.5265 1.43774 -0.26179 0.74554 -0.0799932 -0.044657 -0.0117426 0 
4 1 39.9191 39.1113 38.1578 1.73057 0.525744 -1.89577 0.307454 0.208489 0.10039 0 
5 1 39.208 36.5139 38.3419 -1.55469 0.19463 0.824366 -0.21977 -0.317111 0.162991 0 
6 1 35.1091 38.9829 35.5432 -3.45675 -0.724706 -2.06206 0.174386 0.226157 0.152335 0 
7 1 35.1163 39.3479 38.2279 0.40564 -1.43246 -0.990404 0.117455 0.272846 -0.12552 0 
8 1 36.9556 38.0231 36.8903 -1.45034 0.485082 0.474261 0.475754 -0.394719 -0.0310999 0 
9 1 38.6443 42.3142 35.5679 0.546825 1.14492 1.13425 -0.299566 -0.155856 -0.240651 0 
10 1 37.6746 40.451 38.0089 -1.12535 -0.569478 2.03535 0.1984 0.155347 -0.0609386 0 
11 1 38.4752 42.1582 39.968 1.36813 0.947232 0.883014 0.00527812 -0.237822 -0.33884 0 
12 1 35.9258 41.2592 36.3889 -0.937413 -1.78777 0.568376 -0.456415 0.39951 -0.208408 0 
13 1 35.6191 42.1613 39.0062 -0.961038 0.570995 -0.638889 0.0665835 0.145873 0.134058 0 
14 1 37.3807 43.4593 37.5622 -0.478194 -0.276545 -0.468229 0.0482045 -0.132743 0.0819597 0 
15 1 39.3529 44.7233 38.8821 -0.746969 1.15638 -0.934734 0.0338816 -0.116163 0.285663 0 
16 1 39.5646 44.5861 36.303 -0.621294 0.74663 0.144963 0.0684449 0.177436 0.144297 0 
17 1 38.2105 35.9148 40.9895 -0.268657 -2.70681 -0.762666 0.31255 0.134841 -0.272343 0 
18 1 37.1969 37.92 42.2012 -0.323423 -0.918667 -0.709732 0.0181128 -0.0904429 0.271401 0 
19 1 39.2195 39.3653 44.1486 1.02139 -0.861079 -0.103865 -0.0507996 0.000305207 -0.329283 0 
20 1 39.0305 39.6079 41.2126 -0.833249 0.800766 0.288408 0.163905 -0.028791 -0.436079 0 
21 1 39.3085 41.7582 42.7379 -0.0336646 0.692711 0.211423 -0.305381 -0.0811612 0.237027 0 
22 1 36.3139 40.2141 40.5268 0.845141 -2.27714 -1.24445 -0.0858857 -0.0853742 0.271363 0 
23 1 36.6764 42.6256 41.8325 0.426966 0.0393778 -0.869469 0.00483713 0.0435094 -0.0418074 0 
24 1 39.1295 44.1379 41.4764 0.487073 -0.439612 -0.490462 0.165938 0.318976 0.389452 0 
25 1 37.0377 40.3128 43.0632 0.629099 -1.359 -1.07287 -0.163527 0.242317 0.257821 0 
26 1 39.9217 37.2958 42.5504 -1.15483 0.498272 -1.02824 -0.18215 -0.0963265 0.269559 0 
27 1 36.8975 44.492 40.0391 -1.12555 -0.6232 0.087444 -0.0407128 -0.238623 -0.188126 0 
28 1 42.247 38.7595 36.6487 -1.5419 -1.23529 -1.02317 0.145318 -0.0803784 0.168062 0 
29 1 45.2447 40.4837 39.3631 1.71271 -0.940633 0.6677 -0.261773 0.221201 -0.108012 0 
30 1 41.7585 36.5002 38.0019 -1.14503 -0.242752 0.179308 0.0622281 0.177109 -0.0187249 0 
31 1 44.0277 37.9417 38.6198 1.41575 -1.58612 0.251939 0.267303 0.0938358 -0.161615 0 
32 1 40.4441 40.2885 35.4956 -0.666441 -0.535212 0.176906 -0.296723 -0.000275619 0.0273767 0 
33 1 41.3593 42.9624 35.5002 0.667219 0.098784 1.63616 0.261033 -0.182834 -0.201837 0 
34 1 42.9152 40.7453 35.0438 0.36359 1.18765 1.19221 0.212802 0.182327 -0.0276511 0 
35 1 42.6518 40.0627 39.1454 2.95144 1.03114 -0.187673 -0.243213 -0.0542132 0.211306 0 
36 1 43.1289 41.9935 37.3849 0.599363 1.35748 0.691467 -0.042268 -0.100407 -0.197609 0 
37 1 40.2502 41.9588 37.7256 0.919278 0.232303 -2.02105 -0.23767 -0.00513155 0.0837213 0 
38 1 43.9256 43.0308 39.6622 1.89842 -0.607406 0.72267 -0.20313 0.173106 0.0103837 0 
39 1 41.7687 44.2085 38.0037 -0.206792 -0.66435 0.881925 0.247351 0.0172487 -0.127951 0 
40 1 44.7038 40.0013 36.8279 -1.16891 0.10883 2.72351 -0.190478 -0.276187 0.29391 0 
41 1 41.1209 37.95 40.2797 1.08242 -0.279488 -0.154451 0.143265 0.838304 -0.221364 0 
42 1 40.726 35.4857 40.3988 -3.47169 1.57081 -1.59543 -0.359293 -0.594553 0.144083 0 
43 1 43.1345 36.3049 40.4289 -1.316 1.047 1.7555 0.617411 -0.190788 -0.109978 0 
44 1 42.6006 37.4115 42.7024 0.577369 2.5063 -0.431567 0.0274825 -0.105052 0.0496195 0 
45 1 43.6749 39.613 43.8997 0.199665 0.982751 1.48814 -0.0395469 0.340235 0.00438682 0 
46 1 44.2941 38.8656 41.2391 1.33403 -0.316458 0.931624 -0.376508 -0.123502 -0.110862 0 
47 1 41.4429 38.3365 44.7958 -0.614002 0.431457 0.296626 0.12339 0.123674 -0.14129 0 
48 1 41.6833 40.0503 42.2443 1.72252 1.23471 -0.521392 -0.266519 -0.0865647 -0.195369 0 
49 1 41.3783 42.1386 40.1841 2.3052 -1.50482 -1.03988 -0.246285 0.0966839 0.2996 0 
50 1 43.511 42.4113 44.1542 -0.365767 0.719829 0.551145 0.0600162 -0.262533 -0.172674 0 
51 1 41.6537 44.7363 40.5785 -0.893304 -0.067368 -1.37948 0.067384 0.188702 -0.016421 0 
52 1 43.7412 44.2748 42.0446 -0.110189 0.484804 -0.213207 -0.0321333 -0.547656 0.0322087 0 
53 1 41.4935 43.0617 42.7291 0.251057 -1.13191 -1.78848 0.394273 0.131524 0.120235 0 
54 1 41.335 40.9832 44.717 0.156564 -0.650893 0.910358 0.110906 0.114851 -0.121185 0 
55 1 44.0279 41.5077 41.7445 3.07522 0.823703 -0.0693277 -0.276406 -0.0299559 0.0539972 0 
ITEM: TIMESTEP
400
ITEM: NUMBER OF ATOMS
55
ITEM: BOX BOUNDS pp pp pp
0.0000000000000000e+00 8.0000000000000000e+01
0.0000000000000000e+00 8.0000000000000000e+01
0.0000000000000000e+00 8.0000000000000000e+01
ITEM: ATOMS id type x y z vx vy vz fx fy fz q 
1 1 39.2944 37.934 36.02 -2.70839 1.31178 -0.15503 0.533889 -0.642492 -0.0160472 0 
2 1 37.6558 39.7876 35.2612 -2.30596 -1.01306 0.744837 -0.32803 0.339655 -0.102474 0 
3 1 37.5749 37.97 39.5919 1.05997 -0.80817 0.602033 -0.244627 0.144792 -0.0306782 0 
16 1 39.5297 44.7013 36.3488 0.0766536 1.14878 0.824088 0.229008 -0.438903 0.103626 0 
5 1 39.0167 36.4619 38.3771 -1.97721 -1.1753 -1.15369 0.341568 -0.11079 -0.856256 0 
6 1 34.84 38.9717 35.4088 -1.6176 0.561845 -0.29763 0.713677 0.204896 0.5516 0 
7 1 35.1293 39.2678 38.1006 -0.498261 -0.113495 -1.46204 -0.225493 0.335821 0.185043 0 
8 1 36.8693 37.9726 36.903 -0.820154 -1.63883 -0.245707 -0.105994 -0.343003 -0.0189504 0 
9 1 38.6068 42.3613 35.5927 -1.29944 -0.330153 -0.768531 -0.130253 -0.281171 -0.278387 0 
10 1 37.6524 40.4492 38.1604 0.790658 0.511701 0.404499 0.212747 0.025696 -0.747395 0 
11 1 38.627 42.1918 39.9344 1.83762 -0.00261559 -1.48568 -0.0333805 0.077401 -0.0669556 0 
12 1 35.7288 41.1475 36.4018 -2.81658 -0.602545 -0.15648 0.106077 0.301207 -0.00375336 0 
13 1 35.5574 42.2142 38.9965 -0.177119 0.0044408 0.609549 0.191747 -0.452489 0.253623 0 
14 1 37.3376 43.3914 37.554 -0.301314 -1.17216 0.294814 0.183722 -0.0967788 0.0187641 0 
15 1 39.2637 44.809 38.8686 -1.11553 0.458895 0.763324 0.0757596 -0.273454 0.294783 0 
27 1 36.7899 44.373 39.9884 -0.819612 -1.67255 -1.15715 0.297291 0.0938887 -0.0958175 0 
17 1 38.1686 35.6552 40.8853 -1.5179 -2.69999 -0.902939 -0.578076 0.224097 0.297767 0 
18 1 37.1717 37.7812 42.1995 -0.0599264 -1.84247 0.65774 0.167476 0.143432 0.142345 0 
19 1 39.2822 39.3064 44.0446 0.0295076 -0.0743795 -2.14671 -0.258936 0.279044 -0.256936 0 
20 1 39.0411 39.6865 41.1393 1.27862 0.85496 -1.63791 0.258895 -0.0251458 -0.0870857 0 
21 1 39.2362 41.7964 42.8341 -1.26006 0.158907 1.6859 0.0372689 -0.00761598 -0.0088503 0 
22 1 36.3246 40.0373 40.4856 -1.04096 -0.79661 0.583668 -0.37864 0.540069 0.325224 0 
23 1 36.7212 42.595 41.732 0.605307 -1.07439 -1.19011 0.0878763 -0.336725 0.0468123 0 
24 1 39.2078 44.1936 41.5172 0.895671 1.39848 1.16584 -0.156216 -0.0337423 0.0679567 0 
25 1 37.0571 40.2412 43.0155 -0.25806 -0.142224 -0.00328628 -0.146594 0.157987 0.0926815 0 
26 1 39.7881 37.316 42.4694 -1.16734 -0.182413 -1.21118 0.354509 -0.177438 -0.310603 0 
28 1 42.1833 38.6132 36.5808 0.611811 -1.61857 -0.56748 0.430029 0.208952 -0.00778483 0 
29 1 45.4213 40.4412 39.4511 2.43695 0.162607 1.60416 0.139594 0.269551 0.276185 0 
30 1 41.6661 36.5319 38.0355 -0.733627 1.0252 0.903746 0.123574 0.221957 0.327089 0 
31 1 44.1858 37.7966 38.6288 1.36222 -1.58113 0.261088 -0.365852 -0.0364321 0.196757 0 
32 1 40.3365 40.2737 35.468 -1.07517 0.638194 -1.07953 0.293067 0.355558 -0.201651 0 
33 1 41.4815 42.9694 35.5627 1.39987 0.40325 -0.649187 -0.359098 0.176069 -0.380464 0 
34 1 42.9796 40.8851 35.183 0.653929 1.28993 1.80892 -0.191996 -0.354296 0.0184271 0 
35 1 42.8981 40.0732 39.1687 1.88278 -1.19946 0.725513 -0.523289 -0.296048 0.192436 0 
36 1 43.212 42.1323 37.414 1.3232 1.6151 0.113004 0.103885 -0.0789772 0.0611949 0 
37 1 40.2574 41.9662 37.6294 -0.885783 0.062126 0.472226 -0.235781 0.178872 0.398523 0 
38 1 44.0858 43.0262 39.7279 1.38123 0.547688 0.430401 -0.267436 0.115104 -0.213748 0 
39 1 41.7955 44.1828 38.0522 0.485665 0.41202 -0.0818882 -0.119935 0.268161 -0.313894 0 
40 1 44.5508 39.9166 37.1386 -1.61932 -2.04374 2.89098 0.339703 -0.267902 -0.756414 0 
4 1 40.1427 39.2355 38.0747 2.43619 2.03165 0.796762 -0.353472 0.0408192 0.558368 0 
41 1 41.2534 38.1608 40.2121 1.63832 3.82893 -0.899162 -0.0107674 -0.328016 0.257489 0 
42 1 40.3754 35.4994 40.2765 -2.33509 -0.737453 -0.808237 1.20322 0.0792985 0.274823 0 
43 1 43.1251 36.3448 40.5543 0.502839 -0.123895 0.529829 -0.133142 -0.0342366 -0.409019 0 
44 1 42.6295 37.6455 42.713 -0.356001 2.14329 0.797043 -0.332453 -0.38929 0.131999 0 
45 1 43.6879 39.8108 44.0464 0.120779 2.97095 1.35278 0.0311082 -0.0713854 -0.264778 0 
46 1 44.3615 38.8275 41.2914 0.214623 -0.282208 -0.0511354 -0.144775 0.102702 -0.284547 0 
47 1 41.4374 38.3886 44.8023 0.699901 0.471705 -0.0374518 0.238864 -0.080097 0.0250132 0 
48 1 41.7945 40.172 42.157 0.50843 1.30399 -1.01584 -0.302162 -0.113081 0.189594 0 
49 1 41.5326 42.0407 40.126 0.632065 -0.13844 -0.501506 -0.454102 0.464948 -0.133008 0 
50 1 43.49 42.4213 44.1622 0.141455 -0.401944 -0.201231 0.268817 -0.0251806 0.0864734 0 
51 1 41.587 44.7648 40.4629 -0.419366 0.574715 -0.679632 0.144176 0.0255013 0.359685 0 
52 1 43.7216 44.1996 42.0243 -0.089586 -1.73537 -0.261805 0.212583 -0.00187729 -0.025826 0 
53 1 41.61 42.9684 42.5766 1.54539 -0.870556 -1.24942 -0.435173 0.0837401 0.288073 0 
54 1 41.3739 40.965 44.7623 0.432295 0.463907 -0.151535 -0.188885 0.254708 -0.269593 0 
55 1 44.2872 41.5531 41.7908 2.29142 -0.280951 1.18637 -0.315572 -0.417361 0.11856 0 
ITEM: TIMESTEP
500
ITEM: NUMBER OF ATOMS
55
ITEM: BOX BOUNDS pp pp pp
0.0000000000000000e+00 8.0000000000000000e+01
0.0000000000000000e+00 8.0000000000000000e+01
0.0000000000000000e+00 8.0000000000000000e+01
ITEM: ATOMS id type x y z vx vy vz fx fy fz q 
1 1 39.1964 37.9704 36.0522 0.601096 0.278446 1.05947 0.518109 0.288054 0.404732 0 
2 1 37.371 39.7841 35.3139 -2.57442 0.548548 0.434513 0.365062 0.0141381 0.0315981 0 
3 1 37.6445 37.9404 39.6498 0.669347 0.0450825 0.385476 0.150328 0.0175912 -0.201908 0 
16 1 39.5908 44.6544 36.4581 0.879916 -1.99401 1.11691 -0.021813 -0.539692 -0.108856 0 
5 1 38.903 36.3279 38.107 -0.463795 -1.2117 -2.91891 0.180253 0.13505 0.302303 0 
6 1 34.8273 39.0438 35.4847 0.773946 0.396069 1.21892 0.187039 -0.292222 0.0550219 0 
7 1 35.0655 39.3311 38.0398 -0.284982 1.0743 0.505196 0.316655 0.103978 0.534178 0 
8 1 36.7527 37.7381 36.9124 -1.17956 -2.46629 0.600418 0.138129 0.128973 0.246242 0 
9 1 38.4814 42.2731 35.4812 -0.910994 -1.17697 -1.1587 0.151157 -0.0825868 -0.0368047 0 
10 1 37.7196 40.4471 38.0253 0.100726 -0.874566 -2.43115 -0.298268 -0.426704 -0.243545 0 
11 1 38.7775 42.2392 39.8567 0.753384 0.776256 0.415841 -0.43847 -0.0387358 0.513714 0 
12 1 35.5034 41.2072 36.4068 -1.40422 2.08324 0.384708 0.377661 0.787686 0.188245 0 
13 1 35.5675 42.0731 39.1 0.227365 -2.50269 1.02356 0.0540821 -0.302449 -0.169687 0 
14 1 37.3675 43.2531 37.5475 0.745706 -1.40179 -0.55538 0.0841841 0.0143535 -0.15919 0 
15 1 39.202 44.7961 39.0004 0.155093 -0.412298 1.50338 0.425875 0.0180233 -0.00106328 0 
27 1 36.7823 44.2658 39.8823 0.454071 -0.281539 -0.622591 0.131457 0.301888 0.245752 0 
17 1 37.9237 35.4792 40.8363 -2.32407 -0.314527 -0.516432 0.362042 0.798693 -0.181193 0 
18 1 37.2199 37.6643 42.2655 0.945588 -0.328618 0.315494 0.167561 0.367944 -0.234281 0 
19 1 39.2692 39.337 43.7796 0.258793 0.190349 -2.70817 0.369509 -0.24214 0.0326303 0 
20 1 39.1611 39.7775 40.9843 0.453637 0.964751 -1.14608 -0.473905 0.0411405 0.206511 0 
21 1 39.1463 41.8379 42.9622 -0.373046 0.769568 0.604284 0.210306 0.166049 -0.303751 0 
22 1 36.189 40.0322 40.5705 -0.987435 -0.112168 0.536065 0.312018 -0.383516 -0.267376 0 
23 1 36.813 42.4157 41.6302 1.07302 -1.92132 -0.704411 -0.00674924 0.173795 0.172803 0 
24 1 39.2471 44.2696 41.6256 -0.114296 -0.131221 0.816473 -0.21421 -0.380038 -0.0978609 0 
25 1 36.9978 40.2284 43.017 -0.832608 -0.41648 -0.000808017 -0.0929597 -0.229024 0.0513123 0 
26 1 39.763 37.2485 42.2382 0.434101 -1.07148 -3.14664 0.154003 -0.16289 -0.262303 0 
28 1 42.2849 38.5297 36.5189 0.708826 0.0748969 -0.498898 -0.315832 0.398728 0.142414 0 
29 1 45.646 40.5175 39.6519 1.2782 1.09714 1.77444 -0.620902 0.0849392 -0.284589 0 
30 1 41.6069 36.6805 38.2063 -0.576651 1.63681 1.90615 -0.0617277 0.0144918 -0.233773 0 
31 1 44.2359 37.6138 38.7076 -0.170176 -1.7279 0.975362 -0.211037 0.234546 -0.0942202 0 
32 1 40.3004 40.395 35.3734 0.152349 1.22057 -0.221175 0.13948 -0.178981 0.453913 0 
33 1 41.4943 43.0327 35.4723 -1.02 0.516463 -0.569887 -0.363784 -0.168446 0.218732 0 
34 1 42.9783 40.9073 35.372 -0.709008 -0.752936 1.84248 -0.308923 -0.366045 0.00172588 0 
35 1 43.0066 40.0016 39.2696 0.926458 0.723148 0.740169 0.126104 0.805204 -0.326422 0 
36 1 43.3541 42.2461 37.4618 1.17105 0.361979 0.764334 -0.207764 -0.412869 0.0539583 0 
37 1 40.1618 42.065 37.6455 -0.533368 1.87009 -1.13547 0.265951 0.274387 -0.75552 0 
38 1 44.1521 43.0686 39.7268 -0.0112708 -0.0333518 -0.183196 -0.246063 -0.273886 0.0526201 0 
39 1 41.7937 44.2715 37.9682 -0.427099 1.05589 -1.24294 -0.0489247 0.0238786 -0.0200761 0 
40 1 44.5099 39.6981 37.2298 0.799763 -1.6671 -0.502436 0.463341 0.340925 -0.28927 0 
4 1 40.2789 39.4173 38.1811 0.340466 1.24785 0.404232 -0.30166 -0.293085 -0.411103 0 
41 1 41.3937 38.3254 40.2554 0.744765 -0.962703 1.8824 -0.413088 -0.900678 0.5272 0 
42 1 40.3828 35.5158 40.2464 1.20368 1.30304 -0.0314517 0.0115963 0.454673 0.0314488 0 
43 1 43.1019 36.3458 40.5351 -0.962884 -0.0266108 -0.375317 -0.226527 -0.238149 0.168708 0 
44 1 42.5269 37.7532 42.7821 -1.27717 0.0385092 0.256313 0.0201081 -0.412468 -0.214335 0 
45 1 43.7176 40.0099 44.1107 0.37362 0.413315 -0.0174921 -0.0700747 -0.734892 -0.26099 0 
46 1 44.3623 38.81 41.2336 -0.0413593 -0.258659 -0.703594 0.0215759 -0.128646 0.094304 0 
47 1 41.5283 38.4459 44.8187 0.666448 0.957928 0.426523 -0.206183 0.32 0.140928 0 
48 1 41.7848 40.2716 42.1289 -0.44396 0.687749 0.46582 -0.0576985 -0.0868326 0.256724 0 
49 1 41.5275 42.1326 40.0069 -0.152854 1.59038 -1.7222 0.155577 0.18694 -0.115637 0 
50 1 43.5813 42.4398 44.1956 1.34733 1.10974 0.720316 0.0142997 0.413849 -0.0128437 0 
51 1 41.5798 44.8143 40.4787 0.282959 0.23235 0.754776 0.19132 -0.168995 0.185387 0 