data.lmp.initialize (written by ASE) 

55 	 atoms 
1  atom types
0.0 80.0  xlo xhi
0.0 80.0  ylo yhi
0.0 80.0  zlo zhi
0.0 0.0 0.0  xy xz yz


Atoms 

     1   1 0.0000 39.6143 38.0641 36.3368
     2   1 0.0000 37.8307 39.8887 35.1238
     3   1 0.0000 42.2900 38.6614 36.4563
     4   1 0.0000 37.0745 37.8194 39.5781
     5   1 0.0000 41.7347 36.7765 40.5258
     6   1 0.0000 40.3896 37.9701 42.6443
     7   1 0.0000 39.8679 38.2950 39.1859
     8   1 0.0000 38.6476 36.1102 38.0477
     9   1 0.0000 40.4275 34.6151 39.3499
    10   1 0.0000 44.3459 36.2726 40.8485
    11   1 0.0000 41.4229 36.5219 37.7958
    12   1 0.0000 43.6204 37.9930 38.7959
    13   1 0.0000 35.2391 39.5004 35.6265
    14   1 0.0000 35.4004 39.6469 38.2949
    15   1 0.0000 39.0095 36.3180 40.8562
    16   1 0.0000 42.9976 37.1554 43.0188
    17   1 0.0000 36.8937 37.7523 36.8004
    18   1 0.0000 43.5650 39.7104 43.8607
    19   1 0.0000 44.3747 38.8507 41.3636
    20   1 0.0000 37.6854 38.2648 42.2470
    21   1 0.0000 41.4929 38.3335 45.0623
    22   1 0.0000 38.9654 39.3526 44.4905
    23   1 0.0000 40.4460 40.3513 35.0822
    24   1 0.0000 41.4995 42.9037 35.4614
    25   1 0.0000 43.1111 40.7478 34.9377
    26   1 0.0000 38.7312 42.5566 35.2485
    27   1 0.0000 39.3283 40.1144 41.1131
    28   1 0.0000 41.8766 40.0970 38.7725
    29   1 0.0000 41.9493 40.2006 41.7483
    30   1 0.0000 38.0722 39.9178 37.8626
    31   1 0.0000 43.3561 41.9557 37.3186
    32   1 0.0000 38.0358 41.9986 39.6202
    33   1 0.0000 40.8684 42.1994 40.1100
    34   1 0.0000 38.8587 41.8247 43.1770
    35   1 0.0000 40.0037 41.7571 37.4870
    36   1 0.0000 36.3739 41.6817 36.6636
    37   1 0.0000 35.3812 42.2234 39.2974
    38   1 0.0000 36.2386 40.1147 40.8446
    39   1 0.0000 36.8414 44.4942 39.8596
    40   1 0.0000 39.3909 45.3849 38.9640
    41   1 0.0000 43.4767 43.1350 39.6875
    42   1 0.0000 41.5547 44.0071 37.9664
    43   1 0.0000 43.4292 42.3983 44.2293
    44   1 0.0000 39.8698 44.9778 36.1034
    45   1 0.0000 41.5335 44.8944 40.6114
    46   1 0.0000 43.6479 44.1388 42.1605
    47   1 0.0000 37.8939 43.7314 37.4890
    48   1 0.0000 36.5800 42.6417 41.8667
    49   1 0.0000 39.0391 43.9436 41.3482
    50   1 0.0000 36.6195 40.4227 43.5363
    51   1 0.0000 41.2219 43.0790 42.7357
    52   1 0.0000 41.1613 40.9251 44.3675
    53   1 0.0000 44.7609 39.6383 36.8025
    54   1 0.0000 44.5819 40.6093 39.2958
    55   1 0.0000 44.3126 41.4809 41.8252
