55
node: None  step: -1
Au        11.032000        11.032000        11.032000
Au        13.548002        11.032000         9.477018
Au        13.548002        11.032000        12.586982
Au         8.515998        11.032000         9.477018
Au         8.515998        11.032000        12.586982
Au         9.477018        13.548002        11.032000
Au        12.586982        13.548002        11.032000
Au         9.477018         8.515998        11.032000
Au        12.586982         8.515998        11.032000
Au        11.032000         9.477018        13.548002
Au        11.032000        12.586982        13.548002
Au        11.032000         9.477018         8.515998
Au        11.032000        12.586982         8.515998
Au        16.064004        11.032000         7.922057
Au        16.064004        11.032000        11.032000
Au        16.064004        11.032000        14.141943
Au         5.999996        11.032000         7.922057
Au         5.999996        11.032000        11.032000
Au         5.999996        11.032000        14.141943
Au         7.922057        16.064004        11.032000
Au        11.032000        16.064004        11.032000
Au        14.141943        16.064004        11.032000
Au         7.922057         5.999996        11.032000
Au        11.032000         5.999996        11.032000
Au        14.141943         5.999996        11.032000
Au        11.032000         7.922057        16.064004
Au        11.032000        11.032000        16.064004
Au        11.032000        14.141943        16.064004
Au        11.032000         7.922057         5.999996
Au        11.032000        11.032000         5.999996
Au        11.032000        14.141943         5.999996
Au        13.548002         9.477018        15.102962
Au        13.548002        12.586982        15.102962
Au        13.548002         9.477018         6.961038
Au        13.548002        12.586982         6.961038
Au         8.515998         9.477018        15.102962
Au         8.515998        12.586982        15.102962
Au         8.515998         9.477018         6.961038
Au         8.515998        12.586982         6.961038
Au        15.102962        13.548002         9.477018
Au        15.102962        13.548002        12.586982
Au         6.961038        13.548002         9.477018
Au         6.961038        13.548002        12.586982
Au        15.102962         8.515998         9.477018
Au        15.102962         8.515998        12.586982
Au         6.961038         8.515998         9.477018
Au         6.961038         8.515998        12.586982
Au         9.477018        15.102962        13.548002
Au        12.586982        15.102962        13.548002
Au         9.477018         6.961038        13.548002
Au        12.586982         6.961038        13.548002
Au         9.477018        15.102962         8.515998
Au        12.586982        15.102962         8.515998
Au         9.477018         6.961038         8.515998
Au        12.586982         6.961038         8.515998
55
node: None  step: 0
Au        11.033999        11.033140        11.030604
Au        13.368067        11.004689         9.602947
Au        13.354466        10.968175        12.478246
Au         8.713711        11.102802         9.586995
Au         8.701437        11.060722        12.460812
Au         9.655990        13.395405        11.048979
Au        12.527172        13.332522        11.059580
Au         9.542261         8.733957        11.002320
Au        12.415259         8.668858        11.014886
Au        10.993710         9.566735        13.347392
Au        11.058642        12.440007        13.374206
Au        11.007090         9.619763         8.693078
Au        11.073377        12.499139         8.719985
Au        15.589517        10.965212         8.232135
Au        15.699637        10.979138        11.051912
Au        15.577048        10.899164        13.847606
Au         6.493500        11.170031         8.212596
Au         6.362945        11.132429        11.015532
Au         6.469035        11.098432        13.823558
Au         8.332069        15.649577        11.064634
Au        11.144868        15.708977        11.080947
Au        13.944740        15.528397        11.088757
Au         8.112752         6.540729        10.980324
Au        10.925470         6.362263        10.985491
Au        13.742493         6.417217        10.991256
Au        10.956267         8.163740        15.552594
Au        11.016716        10.969879        15.705747
Au        11.068751        13.780381        15.617630
Au        10.982121         8.260441         6.457633
Au        11.039630        11.078254         6.361181
Au        11.106499        13.887912         6.504687
Au        13.326376         9.486961        14.794355
Au        13.380699        12.360951        14.849966
Au        13.344549         9.574442         7.250834
Au        13.407482        12.456227         7.267777
Au         8.651438         9.589442        14.782955
Au         8.716828        12.470165        14.818093
Au         8.674465         9.676861         7.244195
Au         8.742211        12.570525         7.259714
Au        14.859068        13.315012         9.605963
Au        14.832330        13.283959        12.540895
Au         7.329798        13.472872         9.594857
Au         7.309132        13.428234        12.472315
Au        14.765899         8.643495         9.586553
Au        14.765312         8.611153        12.437477
Au         7.200785         8.795863         9.556846
Au         7.195517         8.759435        12.440003
Au         9.662142        14.806734        13.405628
Au        12.540787        14.750997        13.416124
Au         9.500156         7.254640        13.321034
Au        12.387354         7.197486        13.328275
Au         9.698733        14.882954         8.729692
Au        12.567242        14.806247         8.736867
Au         9.505839         7.307235         8.657682
Au        12.386619         7.240024         8.667649
55
node: None  step: 1
Au        11.034303        11.031501        11.031384
Au        13.385771        11.000087         9.636345
Au        13.334160        10.960738        12.507123
Au         8.730744        11.109493         9.551700
Au         8.678478        11.059211        12.430942
Au         9.643614        13.389329        11.043992
Au        12.517579        13.329876        11.097323
Au         9.540543         8.737790        10.968931
Au        12.421500         8.674793        11.017601
Au        10.961586         9.549363        13.329065
Au        11.016812        12.428882        13.386701
Au        11.036064         9.630137         8.682917
Au        11.108600        12.502908         8.728607
Au        15.631416        10.983686         8.308190
Au        15.704865        10.972458        11.134876
Au        15.524332        10.885216        13.938601
Au         6.530379        11.184068         8.141185
Au         6.368049        11.138888        10.950314
Au         6.430554        11.100112        13.764349
Au         8.323410        15.645452        11.048250
Au        11.131419        15.700403        11.097872
Au        13.932982        15.527336        11.160565
Au         8.106094         6.553847        10.905516
Au        10.924201         6.366980        10.940840
Au        13.751245         6.424120        10.990337
Au        10.897186         8.126261        15.527251
Au        10.947554        10.936061        15.697265
Au        11.008023        13.763629        15.630943
Au        11.050437         8.295397         6.437067
Au        11.120671        11.102687         6.367004
Au        11.185955        13.906909         6.521476
Au        13.268292         9.451909        14.812070
Au        13.323465        12.348461        14.880727
Au        13.407354         9.591647         7.279376
Au        13.470467        12.485854         7.324749
Au         8.603151         9.576182        14.741970
Au         8.659248        12.458094        14.797350
Au         8.728689         9.697893         7.194483
Au         8.803144        12.584143         7.232008
Au        14.892018        13.309641         9.712949
Au        14.820236        13.275766        12.601375
Au         7.335714        13.480018         9.555282
Au         7.282011        13.432202        12.444138
Au        14.800757         8.649890         9.635121
Au        14.742528         8.597956        12.491241
Au         7.223463         8.813999         9.488175
Au         7.174971         8.760355        12.380212
Au         9.628425        14.801161        13.401070
Au        12.500378        14.739686        13.459342
Au         9.462141         7.240868        13.274545
Au        12.347225         7.172250        13.312537
Au         9.721475        14.875061         8.726774
Au        12.611756        14.802735         8.779602
Au         9.536333         7.328401         8.604772
Au        12.438232         7.268212         8.655602
55
node: None  step: 2
Au        10.926200        11.137196        11.167187
Au        13.295599        11.016614         9.686567
Au        13.249480        11.043079        12.574221
Au         8.671625        11.140984         9.630869
Au         8.553972        11.072043        12.521182
Au         9.529597        13.503981        11.111167
Au        12.453047        13.390217        11.067948
Au         9.502448         8.759390        11.065206
Au        12.354405         8.745476        11.106657
Au        10.861373         9.642844        13.452764
Au        10.922297        12.670132        13.525150
Au        10.973182         9.649451         8.784918
Au        11.036358        12.495086         8.760289
Au        15.559279        10.932119         8.290534
Au        15.650238        10.962327        11.099550
Au        15.534975        10.973247        13.879811
Au         6.485460        11.190763         8.197120
Au         6.312010        10.891828        10.957141
Au         6.431479        10.729497        13.944479
Au         8.483310        15.850405        10.751737
Au        11.235512        15.823171        10.699487
Au        14.008467        15.529375        10.936515
Au         8.162391         6.490076        10.911679
Au        10.962246         6.361004        10.906296
Au        13.748042         6.481381        11.027239
Au        10.990316         8.132776        15.550171
Au        11.436277        11.028469        15.713579
Au         9.839069        14.105946        15.448926
Au        10.990720         8.260912         6.517277
Au        11.046298        11.023180         6.381086
Au        11.155898        13.784941         6.432722
Au        13.372686         9.399578        14.767588
Au        13.464898        12.604158        14.740796
Au        13.329903         9.565772         7.306439
Au        13.403822        12.372769         7.267990
Au         8.433847         9.021160        14.644931
Au         8.824007        11.623290        15.233644
Au         8.683810         9.687710         7.250117
Au         8.760268        12.506563         7.179997
Au        14.860613        13.273954         9.599143
Au        14.875964        13.310538        12.440547
Au         7.431378        13.553384         9.352938
Au         8.078237        13.582412        13.522236
Au        14.734862         8.656140         9.627067
Au        14.760720         8.674084        12.460982
Au         7.227966         8.756712         9.467236
Au         7.055412         8.631047        12.303915
Au        10.024104        15.397219        13.081482
Au        12.700245        14.853486        13.300104
Au         9.646510         7.063287        13.234125
Au        12.400169         7.212945        13.357242
Au         9.717532        14.867278         8.559495
Au        12.658994        14.727293         8.593753
Au         9.528127         7.310230         8.658631
Au        12.424357         7.291086         8.710125
55
node: None  step: 3
Au        10.918874        11.140953        11.142586
Au        13.291340        10.963871         9.686008
Au        13.254932        10.975755        12.537613
Au         8.671939        11.198138         9.598878
Au         8.542085        11.188995        12.511556
Au         9.595093        13.555153        11.071789
Au        12.488483        13.366822        11.073457
Au         9.422813         8.821665        11.064200
Au        12.270073         8.709341        11.111431
Au        10.812014         9.685842        13.450284
Au        10.960364        12.631721        13.501373
Au        10.933976         9.646659         8.773434
Au        11.078704        12.501046         8.738784
Au        15.567931        10.798047         8.325848
Au        15.658545        10.800733        11.101287
Au        15.540726        10.821520        13.866723
Au         6.513195        11.274114         8.143670
Au         6.306426        10.989317        10.926694
Au         6.394621        10.869569        13.905493
Au         8.633455        15.927191        10.684429
Au        11.357996        15.838807        10.614206
Au        14.102990        15.440414        11.001009
Au         8.022012         6.576426        10.930364
Au        10.799590         6.367466        10.970678
Au        13.578323         6.400173        11.078041
Au        10.877506         8.210343        15.586271
Au        11.341526        11.015677        15.774500
Au        10.071931        14.149394        15.425261
Au        10.938603         8.234182         6.523084
Au        11.092613        11.002761         6.370359
Au        11.275543        13.764475         6.411431
Au        13.299949         9.410190        14.798134
Au        13.478685        12.418897        14.784107
Au        13.308298         9.479410         7.332402
Au        13.470744        12.301530         7.275259
Au         8.370257         9.165971        14.681080
Au         8.789347        11.759991        15.246290
Au         8.664091         9.717548         7.220427
Au         8.837188        12.525290         7.125459
Au        14.917614        13.175241         9.641002
Au        14.928745        13.179751        12.458244
Au         7.533405        13.653189         9.265058
Au         8.216799        13.737007        13.526803
Au        14.645197         8.538270         9.660215
Au        14.661386         8.550643        12.490872
Au         7.169143         8.843054         9.441628
Au         7.000240         8.746248        12.319339
Au        10.226458        15.431819        13.038516
Au        12.827922        14.721172        13.385434
Au         9.491356         7.166143        13.264868
Au        12.260514         7.225295        13.400673
Au         9.831922        14.909404         8.492171
Au        12.789615        14.668982         8.587744
Au         9.429502         7.340729         8.681379
Au        12.297398         7.227654         8.742154
55
node: None  step: 4
Au        11.066342        11.277033        11.344852
Au        13.437611        10.987437         9.800796
Au        13.428342        10.953877        12.718955
Au         8.762882        11.558942         9.858434
Au         8.645845        11.389113        12.787654
Au         7.337744        13.672071        11.635984
Au        12.867432        13.370145        11.317370
Au         9.474071         9.005588        11.087838
Au        12.339260         8.757018        11.103956
Au        10.939805         9.523551        13.433989
Au        10.043262        13.798624        11.183078
Au        10.978729         9.844083         8.870497
Au        11.312582        12.622658         8.893308
Au        15.669273        10.690385         8.307098
Au        15.824739        10.516327        11.084771
Au        15.747191        10.543730        13.800272
Au         6.625252        11.545014         8.388897
Au         6.394373        11.115031        11.273769
Au         6.404251        10.626180        14.174550
Au         8.733733        15.975495        10.609709
Au        11.731028        15.914709        10.688914
Au        14.487670        15.348142        10.975780
Au         8.018045         6.721189        10.865936
Au        10.765024         6.472595        10.897850
Au        13.542345         6.345921        10.934369
Au        10.954867         7.786437        15.509230
Au        10.995272        10.423555        15.961161
Au        11.141667        12.335566        13.951112
Au        10.880095         8.450077         6.557976
Au        11.264735        11.143130         6.439260
Au        11.564843        13.873094         6.506222
Au        13.287670         9.164120        14.790341
Au        13.634732        13.369594        14.060623
Au        13.339069         9.517948         7.384957
Au        13.667655        12.310514         7.336025
Au         8.637149         9.240131        14.868201
Au         8.756372        11.919353        15.434684
Au         8.676999         9.995356         7.414186
Au         9.117993        12.682550         7.207076
Au        15.186310        13.100292         9.581016
Au        15.496132        12.923927        12.270301
Au         7.724868        14.040305         9.030766
Au         6.699631        13.190342        14.188794
Au        14.678585         8.453334         9.602532
Au        14.677971         8.400492        12.503254
Au         7.187120         9.119672         9.595015
Au         7.171219         8.738312        12.475221
Au         9.115164        14.153918        13.756932
Au        11.667173        14.969151        13.212545
Au         9.444402         7.159560        13.217888
Au        12.292505         7.037872        13.271137
Au        10.210071        15.100798         8.540412
Au        13.102538        14.697065         8.697429
Au         9.378691         7.561924         8.663518
Au        12.231670         7.326754         8.693557
55
node: None  step: 5
Au        11.031131        11.164188        11.052741
Au        13.370108        10.963069         9.589931
Au        13.377389        10.923053        12.449055
Au         8.733491        11.340788         9.617641
Au         8.732282        11.260631        12.539118
Au         9.775523        13.627023        11.137982
Au        12.669426        13.348689        11.050716
Au         9.451320         8.909333        10.975809
Au        12.305296         8.696679        10.981333
Au        10.949158         9.635498        13.312922
Au        11.201468        12.604379        13.389205
Au        10.953857         9.743351         8.687657
Au        11.158250        12.605005         8.733539
Au        15.601576        10.800226         8.207607
Au        15.729261        10.715305        11.000207
Au        15.612695        10.677079        13.808856
Au         6.531250        11.468025         8.177064
Au         6.381536        11.377021        11.006895
Au         6.554708        11.438469        13.944268
Au         8.531945        15.870531        10.783794
Au        11.441745        15.771194        10.784213
Au        14.224769        15.438821        11.065466
Au         7.945022         6.761430        10.860580
Au        10.739267         6.433605        10.822951
Au        13.539991         6.364984        10.921193
Au        10.880120         8.169514        15.470731
Au        10.604049        11.048355        15.624187
Au        11.427387        13.610390        15.767546
Au        10.883090         8.404312         6.412692
Au        11.096640        11.183884         6.347603
Au        11.312676        13.951001         6.472829
Au        13.266432         9.407532        14.745200
Au        13.544634        12.236171        14.836490
Au        13.296599         9.541224         7.227711
Au        13.506111        12.412919         7.258273
Au         8.486574         9.365614        14.605466
Au         7.972960        11.361526        16.232635
Au         8.650279         9.936948         7.208796
Au         8.860785        12.755560         7.224349
Au        15.027638        13.163214         9.599840
Au        15.086739        13.079189        12.422871
Au         7.461083        13.748816         9.496558
Au         8.825950        13.151316        14.561723
Au        14.661440         8.517835         9.539154
Au        14.653933         8.465163        12.419237
Au         7.140870         9.072199         9.461926
Au         7.048212         9.023542        12.273452
Au         7.291869        13.624495        12.262033
Au        13.077740        14.584138        13.459180
Au         9.488779         7.235730        13.161937
Au        12.282887         7.183704        13.287264
Au         9.898594        15.020689         8.635027
Au        12.869395        14.780818         8.667794
Au         9.364016         7.494530         8.578144
Au        12.250055         7.291294         8.598607
55
node: None  step: 6
Au        12.708728        12.893091        10.240652
Au        14.491078        10.837790        10.268088
Au        13.667625        10.422911        15.095680
Au         8.706794        10.970526         9.514167
Au         7.537177        11.794523        11.993785
Au         8.447532        14.394542        11.473885
Au        12.609620        14.110759        12.813594
Au         9.468337         9.650080        11.776132
Au        12.170381         9.164538        10.928480
Au        11.255750         9.255217        13.775720
Au        10.365930        12.352188        11.648935
Au        11.440885        10.720084         8.700303
Au        11.669232        10.988761         5.860796
Au        15.691169        11.386782         7.956392
Au        12.839387        11.306833        12.599497
Au        15.437628        10.673440        12.928125
Au         6.564867        11.097530         7.795281
Au         6.338409         9.942956        10.355615
Au         6.747050        11.252482        14.638691
Au         8.626266        15.236661         8.929665
Au        10.981092        15.126789        10.796844
Au        13.792649        15.452181        10.742533
Au         7.849019         7.684997        10.824653
Au        10.548222         6.918407        11.266734
Au        13.180952         6.361802        11.444456
Au        10.341205         7.476324        15.873364
Au        11.070119        10.121017        16.251094
Au        11.838685        12.440601        14.936459
Au        11.412320         8.550316         6.852727
Au         9.443803        12.079192         4.896485
Au        10.991656        13.582573         6.419171
Au        12.914569         7.967701        15.677937
Au        14.550477        12.886455        14.337324
Au        13.743509         9.514653         7.953679
Au        13.280916        12.403931         7.494956
Au         8.527272         9.329049        15.319346
Au         9.422907        11.532151        14.098319
Au         9.196773        10.323978         6.906989
Au         8.305007        13.057538         7.095415
Au        15.042763        13.752822         9.015886
Au        15.143437        13.122293        11.686692
Au         7.045918        13.138474         9.531464
Au         7.525948        13.658035        13.965978
Au        14.691346         8.191143        10.295304
Au        13.837144         8.485450        13.045287
Au         7.396157         8.637169         8.273283
Au         7.005696         9.208150        12.948925
Au        10.073508        14.237895        13.668276
Au        14.964547        15.298321        13.174289
Au         9.040167         7.416922        13.447626
Au        11.737661         6.547502        13.712605
Au        10.246212        13.201455         8.990767
Au        12.437717        14.890991         8.408146
Au         9.933648         8.440333         9.118986
Au        12.463131         7.271694         8.994519
55
node: None  step: 7
Au        11.930363        12.532412         9.652743
Au        14.182182        10.816512         9.602685
Au        14.033451         9.995001        13.980324
Au         9.246478        11.805311         9.510332
Au         8.312609        10.514286        13.065024
Au         7.442293        12.786373        11.339911
Au        12.919709        13.180374        12.224204
Au         9.361365         9.344061        10.810338
Au        12.429691        10.509485        11.725878
Au        10.743900         9.113670        13.301307
Au        10.204631        12.289240        12.135850
Au        11.576016         9.709183         9.149152
Au        11.128566        11.407910         7.090612
Au        15.849282        10.746689         7.537771
Au        15.174010        11.565820        12.088356
Au        14.634877         8.837030        11.515176
Au         6.821692        11.095741         8.353728
Au         6.509058        10.307630        10.872578
Au         7.236443        10.435227        15.598547
Au         8.389401        15.251969        10.604614
Au        10.945971        14.811139        11.197882
Au        13.578373        15.710086        11.333185
Au         7.098153         7.990800        12.067132
Au        11.902918         7.726712        11.025734
Au        14.225673         6.486577        10.458243
Au        10.764617         6.774226        14.575462
Au        11.763531        11.477799        14.417845
Au        11.124500        14.156631        14.057700
Au        11.111447         8.495990         6.661850
Au        12.964820        11.896152         5.250512
Au        11.724112        13.952829         6.529308
Au        12.256240         8.786210        15.604326
Au        14.267869        12.698113        14.505696
Au        13.454830         9.812885         7.006887
Au        13.880240        12.676247         7.570139
Au         9.853644         9.905772        15.807261
Au         9.155956        12.397683        14.921139
Au         9.008679         9.666611         7.767190
Au         8.679032        12.473443         6.894550
Au        14.675782        13.522381        10.079002
Au        15.518204        14.220206        12.588213
Au         7.253685        13.724473         8.760512
Au         6.618067        12.477743        13.923752
Au        15.150487         8.425778         8.784686
Au        13.121857         7.475250        13.398975
Au         7.364684         8.247210         9.353822
Au         5.727834         9.907657        13.475881
Au         8.608335        14.398379        13.143521
Au        13.549035        15.268532        13.994915
Au         8.359987         8.092051        14.454916
Au         9.541890         6.897684        12.145780
Au         9.983032        14.302020         8.574987
Au        12.667034        14.996975         8.874783
Au         9.991623         7.375761         9.003926
Au        12.741842         7.288073         8.391155
55
node: None  step: 8
Au        11.108434        12.680266         9.044411
Au        13.252936        11.048465        10.055035
Au        13.168832        10.841275        12.876112
Au         8.656420        11.293913         9.580897
Au         8.290085        11.233383        12.645349
Au         8.788141        13.561113        11.179933
Au        12.896959        13.355487        11.492124
Au         9.274327         9.091702        11.216792
Au        12.053618         8.808355        11.379229
Au        10.650157         9.786181        13.757268
Au        10.789330        11.498944        11.518241
Au        10.967196         9.832248         9.009690
Au        11.419231        11.055193         6.551088
Au        15.644014        10.849107         8.955972
Au        15.491813        11.644517        11.698941
Au        15.457357        10.314384        14.194257
Au         6.674703        11.269633         7.876601
Au         6.546028        10.044993        10.799259
Au         6.744242        11.296639        14.774036
Au         8.328058        15.953312        10.168294
Au        10.916313        15.225895        10.871125
Au        13.498296        15.996099        11.193176
Au         7.446210         7.283079        10.939011
Au        10.503492         6.547324        11.152085
Au        13.308243         6.350993        11.275668
Au        10.669021         7.761180        15.744869
Au        10.941696        10.271802        16.509701
Au        12.081596        12.178327        14.951086
Au        11.151420         8.300528         6.751427
Au        10.247968        12.522332         4.715818
Au        11.591494        13.843825         6.518418
Au        13.020407         9.210604        15.088598
Au        14.599710        12.833265        14.139876
Au        13.476766         9.513591         7.738745
Au        13.619673        12.328891         7.632136
Au         8.488986         9.349775        15.373883
Au         9.355165        11.994486        15.156830
Au         8.921519         9.829070         7.099759
Au         9.061369        12.587340         7.048236
Au        15.021411        13.417366         9.683508
Au        15.389177        14.418400        12.173948
Au         7.430155        13.758704         8.852779
Au         7.791113        13.622897        13.767568
Au        14.537923         8.587517        10.106851
Au        14.409802         8.294558        12.843635
Au         7.035179         8.689110         8.632181
Au         6.979644         8.871764        13.156497
Au        10.561256        13.687515        13.262537
Au        12.982041        14.923130        13.634835
Au         9.204190         7.371020        13.419870
Au        11.976365         7.099465        13.525118
Au         9.875721        14.993592         8.311735
Au        12.782584        14.791385         8.861036
Au         9.437695         7.529519         8.846305
Au        12.244517         7.316541         9.007623
55
node: None  step: 9