data_lammps (written by ASE) 

55 	 atoms 
1  atom types
0.0 80.000000000  xlo xhi
0.0 80.000000000  ylo yhi
0.0 80.000000000  zlo zhi


Atoms 

     1   1 0.0000 39.614310000 38.064125000 36.336835000
     2   1 0.0000 37.830710000 39.888685000 35.123825000
     3   1 0.0000 42.290010000 38.661405000 36.456255000
     4   1 0.0000 37.074470000 37.819405000 39.578115000
     5   1 0.0000 41.734710000 36.776505000 40.525815000
     6   1 0.0000 40.389610000 37.970075000 42.644315000
     7   1 0.0000 39.867910000 38.294965000 39.185915000
     8   1 0.0000 38.647590000 36.110175000 38.047735000
     9   1 0.0000 40.427510000 34.615115000 39.349915000
    10   1 0.0000 44.345910000 36.272555000 40.848515000
    11   1 0.0000 41.422910000 36.521895000 37.795835000
    12   1 0.0000 43.620410000 37.992985000 38.795915000
    13   1 0.0000 35.239090000 39.500385000 35.626525000
    14   1 0.0000 35.400450000 39.646885000 38.294865000
    15   1 0.0000 39.009520000 36.317995000 40.856215000
    16   1 0.0000 42.997610000 37.155395000 43.018815000
    17   1 0.0000 36.893710000 37.752295000 36.800425000
    18   1 0.0000 43.565010000 39.710385000 43.860715000
    19   1 0.0000 44.374710000 38.850705000 41.363615000
    20   1 0.0000 37.685380000 38.264805000 42.247015000
    21   1 0.0000 41.492910000 38.333465000 45.062315000
    22   1 0.0000 38.965360000 39.352605000 44.490515000
    23   1 0.0000 40.446010000 40.351285000 35.082185000
    24   1 0.0000 41.499510000 42.903685000 35.461385000
    25   1 0.0000 43.111110000 40.747785000 34.937685000
    26   1 0.0000 38.731200000 42.556585000 35.248455000
    27   1 0.0000 39.328310000 40.114385000 41.113115000
    28   1 0.0000 41.876610000 40.096985000 38.772515000
    29   1 0.0000 41.949310000 40.200585000 41.748315000
    30   1 0.0000 38.072190000 39.917785000 37.862625000
    31   1 0.0000 43.356110000 41.955685000 37.318605000
    32   1 0.0000 38.035780000 41.998585000 39.620215000
    33   1 0.0000 40.868410000 42.199385000 40.110015000
    34   1 0.0000 38.858740000 41.824685000 43.177015000
    35   1 0.0000 40.003710000 41.757085000 37.486955000
    36   1 0.0000 36.373850000 41.681685000 36.663575000
    37   1 0.0000 35.381170000 42.223385000 39.297415000
    38   1 0.0000 36.238600000 40.114685000 40.844615000
    39   1 0.0000 36.841380000 44.494185000 39.859615000
    40   1 0.0000 39.390910000 45.384885000 38.964015000
    41   1 0.0000 43.476710000 43.134985000 39.687515000
    42   1 0.0000 41.554710000 44.007085000 37.966445000
    43   1 0.0000 43.429210000 42.398285000 44.229315000
    44   1 0.0000 39.869810000 44.977785000 36.103405000
    45   1 0.0000 41.533510000 44.894385000 40.611415000
    46   1 0.0000 43.647910000 44.138785000 42.160515000
    47   1 0.0000 37.893910000 43.731385000 37.488955000
    48   1 0.0000 36.579990000 42.641685000 41.866715000
    49   1 0.0000 39.039130000 43.943585000 41.348215000
    50   1 0.0000 36.619450000 40.422685000 43.536315000
    51   1 0.0000 41.221910000 43.078985000 42.735715000
    52   1 0.0000 41.161310000 40.925085000 44.367515000
    53   1 0.0000 44.760910000 39.638285000 36.802545000
    54   1 0.0000 44.581910000 40.609285000 39.295815000
    55   1 0.0000 44.312610000 41.480885000 41.825215000
