LAMMPS (27 Oct 2016)
# (written by ASE)
clear
#variable dump_file string "/home/leili/tmp/trj_lammps000001ngNear"
#variable data_file string "/home/leili/tmp/data_lammps000001vZOftm"
units metal
boundary p p p
atom_modify sort 0 0.0
atom_style charge

#geometry information
read_data ./data_lammps
  orthogonal box = (0 0 0) to (80 80 80)
  2 by 3 by 4 MPI processor grid
  reading atoms ...
  55 atoms

### interactions
pair_style eam
pair_coeff * * Au_u3.eam
Reading potential file Au_u3.eam with DATE: 2007-06-11

### run
neighbor	0.3 bin
neigh_modify  every 20 delay 0 check no
#fix 1 all nvt temp 300.0 300.0 0.01
#write output every N timesteps in one of several styles to one or more miles
dump dump_all all custom 1 trj_lammps id type x y z vx vy vz fx fy fz q

#Set the style and content for printing thermodynamic data to the screen and log file.
thermo_style custom step temp press cpu pxx pyy pzz pxy pxz pyz ke pe etotal vol lx ly lz atoms
thermo_modify flush yes
#output thermodynamics every N timesteps
thermo 1
minimize 1.0e-8 1.0e-3 1000 1000
WARNING: Resetting reneighboring criteria during minimization (../min.cpp:168)
Neighbor list info ...
  1 neighbor list requests
  update every 1 steps, delay 0 steps, check yes
  max neighbors/atom: 2000, page size: 100000
  master list distance cutoff = 5.85
  ghost atom cutoff = 5.85
  binsize = 2.925 -> bins = 28 28 28
Memory usage per processor = 0.0638742 Mbytes
Step Temp Press CPU Pxx Pyy Pzz Pxy Pxz Pyz KinEng PotEng TotEng Volume Lx Ly Lz Atoms 
       0            0    -87.43439            0   -85.536619   -86.768906   -89.997645  -0.49562384    2.8876123    2.3969897            0   -184.56578   -184.56578       512000           80           80           80       55 
       1            0   -26.982193  0.000483457   -25.260797   -26.584173   -29.101608   -1.0679516    2.7054075    1.7719918            0   -185.52337   -185.52337       512000           80           80           80       55 
       2            0   -1.6616546 0.00085314736   0.30548315   -1.1951039   -4.0953431  -0.53045865    2.7246815    1.4267814            0   -185.87542   -185.87542       512000           80           80           80       55 
       3            0    19.799336 0.0012348127    21.886157    19.601174    17.910678  -0.33101472    2.5159095   0.68703094            0    -186.0422    -186.0422       512000           80           80           80       55 
       4            0    7.9042781 0.0016633049    11.410272    5.7661671    6.5363955 -0.081615132    2.7493431   0.75552174            0    -186.2306    -186.2306       512000           80           80           80       55 
       5            0   -5.4484286 0.0019626673   -1.3259619   -9.4970311   -5.5222928  -0.24991222     3.322967    1.1994473            0   -186.34806   -186.34806       512000           80           80           80       55 
       6            0   -7.5501137  0.002427021    -3.876408   -11.986269   -6.7876637  -0.07289581    3.2572477    1.2379916            0   -186.44791   -186.44791       512000           80           80           80       55 
       7            0  -0.50701374 0.0027836561    2.2606554   -3.9637812   0.18208454   0.81085387    1.8461145    1.1073751            0   -186.52184   -186.52184       512000           80           80           80       55 
       8            0    10.082322 0.0031542238    11.793876    7.5512774    10.901811    1.4952956   0.77221326   0.68606832            0   -186.60446   -186.60446       512000           80           80           80       55 
       9            0    6.4166095 0.0035176463    7.2776349    4.2359006    7.7362929      2.50747   0.92099206    0.6674795            0   -186.70888   -186.70888       512000           80           80           80       55 
      10            0   -6.9697668 0.0038683526   -6.6893579   -8.6211268   -5.5988158    3.3149202    1.1585701    1.4528944            0   -186.82418   -186.82418       512000           80           80           80       55 
      11            0    -5.184399 0.0041463338   -5.8225591   -6.2829004   -3.4477374    3.4830433    1.5810394    1.2985664            0   -186.93029   -186.93029       512000           80           80           80       55 
      12            0  -0.44991103 0.0045625549   -1.6795194   -1.0761986    1.4059849    3.2917386    2.0344153   0.44185828            0   -187.01625   -187.01625       512000           80           80           80       55 
      13            0    5.1684048 0.0048734993    2.8529937    5.3568179    7.2954029    2.9088966    1.9020711   -0.9731638            0   -187.07987   -187.07987       512000           80           80           80       55 
      14            0  -0.72421821 0.0052187648   -3.2776445  -0.33756641    1.4425563    2.3515658   0.88560267  -0.83338875            0   -187.14516   -187.14516       512000           80           80           80       55 
      15            0   -7.8802328 0.0055199042   -10.007415   -7.3131468   -6.3201366     2.037577  0.013451661  -0.12976878            0    -187.2319    -187.2319       512000           80           80           80       55 
      16            0   -1.4489346 0.0059157126   -3.9506935  -0.50142332   0.10531285    2.2897619  0.045295007 -0.063818566            0   -187.31795   -187.31795       512000           80           80           80       55 
      17            0    3.7130147 0.0063377842   0.29683837    4.6329593    6.2092463     2.162591  -0.33858399      1.09014            0   -187.44867   -187.44867       512000           80           80           80       55 
      18            0  -0.77003856 0.0067075714   -5.0274793  -0.58270962    3.3000733    1.8886351  -0.75885893    2.5395645            0     -187.575     -187.575       512000           80           80           80       55 
      19            0   -4.3555445 0.0069604609   -8.6940527   -4.9356041   0.56302337    1.8492639   -0.9623708      2.92373            0    -187.6996    -187.6996       512000           80           80           80       55 
      20            0   -2.5793243 0.0074313805   -5.7477531    -3.822874    1.8326541    2.2213096   -0.9921263    1.8020584            0   -187.81133   -187.81133       512000           80           80           80       55 
      21            0    1.6114451 0.0076709241  -0.29838983   0.21236204     4.920363    2.3623201   -1.2936654   0.67838701            0   -187.89597   -187.89597       512000           80           80           80       55 
      22            0 -0.075888163 0.0080476683   -1.5802269   -1.3017641    2.6543265     2.195179   -1.1702567   0.89811366            0   -187.94781   -187.94781       512000           80           80           80       55 
      23            0   -1.4800189 0.0084285513   -1.7159939   -3.3048009     0.580738    2.2058013   -1.3149618   0.57613329            0   -187.97861   -187.97861       512000           80           80           80       55 
      24            0  -0.92484921 0.0087687373  -0.21259228   -2.7971527   0.23519733    1.7301654   -1.6964993   0.16068873            0   -188.00156   -188.00156       512000           80           80           80       55 
      25            0   0.80590584 0.0090640727    1.6177024  -0.55907634    1.3590915   0.47959984   -1.9445818  0.068680841            0   -188.01713   -188.01713       512000           80           80           80       55 
      26            0   -0.3625208 0.0094170943    0.1665161  -0.98021074  -0.27386775  -0.45947521   -1.8720344 -0.046769343            0   -188.02707   -188.02707       512000           80           80           80       55 
      27            0   0.16357018 0.0097645037   0.49473169    0.0542877 -0.058308841  -0.81782424    -1.842465  -0.31880085            0   -188.03523   -188.03523       512000           80           80           80       55 
      28            0  -0.70709275   0.01009912  -0.45919643  -0.12103771   -1.5410441   -1.0029593   -1.6384097  -0.31043198            0   -188.04281   -188.04281       512000           80           80           80       55 
      29            0  0.022138968  0.010412352   0.20065984   0.97374016   -1.1079831   -1.0399802   -1.2006377  -0.55413612            0   -188.04828   -188.04828       512000           80           80           80       55 
      30            0  -0.27062507  0.010696365  0.043275867   0.76157449   -1.6167256  -0.99209732  -0.79246917  -0.93508595            0   -188.05358   -188.05358       512000           80           80           80       55 
      31            0   0.20158216    0.0110182   0.79731836   0.83610056   -1.0286724  -0.96506909  -0.34508548   -1.3852094            0   -188.05935   -188.05935       512000           80           80           80       55 
      32            0  -0.37199194  0.012432156   0.40830601  0.018989882   -1.5432717   -1.0231762   0.17441585   -1.3612504            0   -188.06486   -188.06486       512000           80           80           80       55 
      33            0   -0.1976186  0.012764892   0.23066437   0.43149144   -1.2550116  -0.81082054   0.68308922   -1.1967098            0   -188.07039   -188.07039       512000           80           80           80       55 
      34            0  -0.35576361  0.013058756  -0.68419419   0.49108133  -0.87417796  -0.54199675   0.99356807  -0.74371303            0   -188.07839   -188.07839       512000           80           80           80       55 
      35            0   0.20015358  0.013415495  -0.76547606    1.0136091   0.35232774  -0.19326943    1.0053966  -0.02330784            0    -188.0861    -188.0861       512000           80           80           80       55 
      36            0  -0.34681865  0.013703875   -1.4296125   0.40812732 -0.018970815  -0.27506226   0.81749757   0.64406382            0    -188.0931    -188.0931       512000           80           80           80       55 
      37            0  0.057135647   0.01400532   -1.0309782    1.2152919 -0.012906733  -0.43581291   0.59603118    1.0194839            0    -188.1001    -188.1001       512000           80           80           80       55 
      38            0  -0.63544978  0.014422692   -1.7452629    0.7369466  -0.89803307  -0.52270698   0.34877817    1.0026844            0   -188.10567   -188.10567       512000           80           80           80       55 
      39            0    0.4329114  0.014714193  -0.34613378    1.7068548 -0.061986837  -0.38523593 -0.016988153   0.70270106            0   -188.11067   -188.11067       512000           80           80           80       55 
      40            0   -0.7456258  0.015011678    -1.001624   0.20227292   -1.4375263  -0.36779935  -0.24805158   0.34613256            0   -188.11434   -188.11434       512000           80           80           80       55 
      41            0   0.39492592   0.01540377   0.44885798     1.084734  -0.34881422  -0.22714635  -0.36473203   0.10313148            0   -188.11724   -188.11724       512000           80           80           80       55 
      42            0 -0.088317605  0.015687253   0.17996378   0.34216498  -0.78708158 -0.080164796  -0.36605768   0.23023442            0   -188.11988   -188.11988       512000           80           80           80       55 
      43            0   0.21884884   0.01597055   0.69884408   0.32431478  -0.36661234   0.19028546  -0.34993554   0.24785054            0   -188.12201   -188.12201       512000           80           80           80       55 
      44            0  -0.56430661  0.016330423  0.095769672  -0.67653783   -1.1121517   0.30827813  -0.29301029   0.35103513            0   -188.12382   -188.12382       512000           80           80           80       55 
      45            0   0.15190084  0.016669789   0.82292508 -0.034196952  -0.33302561    0.3833322  -0.26532073   0.33148268            0   -188.12528   -188.12528       512000           80           80           80       55 
      46            0  -0.25525075  0.016953377   0.17739568  -0.47969796  -0.46344996   0.40542177  -0.10856026   0.33486388            0    -188.1265    -188.1265       512000           80           80           80       55 
      47            0   0.22252408  0.017236395   0.42691036  0.011695175   0.22896671   0.41245055 -0.084758063   0.25881927            0   -188.12755   -188.12755       512000           80           80           80       55 
      48            0 -0.033902375  0.017596524   0.01350246  -0.29552687   0.18031729   0.36208377 -0.094593755   0.23356478            0   -188.12852   -188.12852       512000           80           80           80       55 
      49            0 -0.037793336  0.017874911 -0.047646169  -0.30459052   0.23885668   0.30163597  -0.11028858     0.248613            0   -188.12919   -188.12919       512000           80           80           80       55 
      50            0  -0.14060943  0.018151073  -0.22992749  -0.41682767   0.22492689   0.21078301 -0.020895695   0.18268209            0   -188.12978   -188.12978       512000           80           80           80       55 
      51            0  -0.11757229  0.018496323  -0.15917785  -0.33049001     0.136951   0.12489414  0.027859492   0.13362252            0   -188.13024   -188.13024       512000           80           80           80       55 
      52            0  0.088166147  0.018770477  0.071543674 -0.086413919   0.27936869  0.092972249  0.074296297  0.062333622            0   -188.13059   -188.13059       512000           80           80           80       55 
      53            0   0.15044382  0.019043704   0.17612085  0.027549539   0.24766106  0.029026716  0.073635517     0.055149            0   -188.13085   -188.13085       512000           80           80           80       55 
      54            0  0.042584552  0.019377217  0.084958194 -0.066020284   0.10881575 -0.0076106646   0.11112195  0.057429963            0   -188.13105   -188.13105       512000           80           80           80       55 
      55            0  -0.15440647   0.01965086 -0.081298206  -0.28147833  -0.10044287 -0.082049991   0.10688988  0.034413434            0   -188.13119   -188.13119       512000           80           80           80       55 
      56            0 -0.0022515168  0.022027845   0.09449975  -0.14814198  0.046887683   -0.1094942   0.11736283 -0.054111833            0   -188.13129   -188.13129       512000           80           80           80       55 
      57            0  0.042436058  0.022372449   0.14730073 -0.069620783  0.049628227  -0.11361915   0.12159266 -0.093144555            0   -188.13135   -188.13135       512000           80           80           80       55 
      58            0  0.063982861  0.022665553   0.14028903  -0.01623588   0.06789543 -0.091879712   0.10980633  -0.10550916            0   -188.13138   -188.13138       512000           80           80           80       55 
      59            0 -0.0053939143  0.022949724  0.027128553 -0.046885339 0.0035750429 -0.083881855  0.078457497 -0.098466155            0   -188.13141   -188.13141       512000           80           80           80       55 
      60            0 -0.049220402  0.023233233 -0.063753146 -0.068586365 -0.015321693 -0.076557218  0.063509006 -0.071258028            0   -188.13143   -188.13143       512000           80           80           80       55 
      61            0  0.043256898  0.023587435 -0.0077733612   0.04334161  0.094202447 -0.067114341   0.02883454 -0.034441729            0   -188.13145   -188.13145       512000           80           80           80       55 
      62            0 -0.00049678538  0.023864383 -0.084651287 -0.0033077365  0.086468668 -0.051947266 0.0068214785 -0.017903603            0   -188.13147   -188.13147       512000           80           80           80       55 
      63            0   0.02913981  0.024143796 -0.064943728  0.026459396   0.12590376 -0.027137863 -0.011506017 -0.010991113            0   -188.13149   -188.13149       512000           80           80           80       55 
      64            0 -0.020955422  0.024500884  -0.10968469 -0.016037642  0.062856066 -0.001796211 -0.012996989 -0.0012505033            0    -188.1315    -188.1315       512000           80           80           80       55 
      65            0  0.021944921    0.0247772  -0.05146475  0.031384478  0.085915034  0.015075072 -0.012355503 -0.0022701187            0   -188.13151   -188.13151       512000           80           80           80       55 
      66            0 -0.030833289  0.025058787 -0.086117099 -0.022857961  0.016475193  0.017746507 -0.0052050576 0.0049121178            0   -188.13151   -188.13151       512000           80           80           80       55 
      67            0  0.018018847  0.025406474 -0.017480755  0.029279387  0.042257908  0.025170346 -0.0028608571 0.0068747033            0   -188.13152   -188.13152       512000           80           80           80       55 
      68            0 -0.011204951  0.025687344 -0.035011015 0.0056973853 -0.0043012232  0.027977718 0.0036765265 0.0095252003            0   -188.13152   -188.13152       512000           80           80           80       55 
      69            0  0.018547198  0.025962953 0.0019688865  0.040641517  0.013031189  0.030583265 0.0072029411 0.0048161582            0   -188.13152   -188.13152       512000           80           80           80       55 
      70            0 -0.0031777402  0.026328584 -0.013662549  0.014695023 -0.010565694  0.030051007 0.0081924308 0.0030351132            0   -188.13152   -188.13152       512000           80           80           80       55 
      71            0 -0.011139781   0.02661778   -0.0112166 -0.0016810453 -0.020521698  0.031362838 0.0088548366  0.001338309            0   -188.13153   -188.13153       512000           80           80           80       55 
      72            0 -0.012639343  0.026897527 -0.0025063144 -0.013983598 -0.021428116  0.024511907  0.011673431 0.0012579896            0   -188.13153   -188.13153       512000           80           80           80       55 
      73            0  0.017821434  0.027202828  0.033538962  0.013101729 0.0068236119  0.017677317  0.012498417 -0.00077856319            0   -188.13153   -188.13153       512000           80           80           80       55 
Loop time of 0.0272907 on 24 procs for 73 steps with 55 atoms

99.1% CPU use with 24 MPI tasks x no OpenMP threads

Minimization stats:
  Stopping criterion = energy tolerance
  Energy initial, next-to-last, final = 
        -184.565776359     -188.131529149     -188.131530381
  Force two-norm initial, final = 3.90213 0.00311861
  Force max component initial, final = 0.921925 0.00142883
  Final line search alpha, max atom move = 1 0.00142883
  Iterations, force evaluations = 73 130

MPI task timing breakdown:
Section |  min time  |  avg time  |  max time  |%varavg| %total
---------------------------------------------------------------
Pair    | 2.5079e-05 | 0.00048057 | 0.0031816  |   4.6 |  1.76
Neigh   | 3.319e-05  | 6.3052e-05 | 0.00027497 |   0.8 |  0.23
Comm    | 0.00063792 | 0.00091424 | 0.0025986  |   1.9 |  3.35
Output  | 0.01746    | 0.017504   | 0.017767   |   0.0 | 64.14
Modify  | 0          | 0          | 0          |   0.0 |  0.00
Other   |            | 0.008329   |            |       | 30.52

Nlocal:    2.29167 ave 16 max 0 min
Histogram: 20 0 0 0 0 0 1 0 1 2
Nghost:    6.875 ave 44 max 0 min
Histogram: 20 0 0 0 0 0 0 0 1 3
Neighs:    29.1667 ave 264 max 0 min
Histogram: 20 0 0 1 1 0 0 1 0 1

Total # of neighbors = 700
Ave neighs/atom = 12.7273
Neighbor list builds = 18
Dangerous builds not checked
print "$(pe)"
-188.13153038124085015
Total wall time: 0:00:00
