ITEM: TIMESTEP
0
ITEM: NUMBER OF ATOMS
55
ITEM: BOX BOUNDS pp pp pp
0.0000000000000000e+00 8.0000000000000000e+01
0.0000000000000000e+00 8.0000000000000000e+01
0.0000000000000000e+00 8.0000000000000000e+01
ITEM: ATOMS id type x y z vx vy vz fx fy fz q 
1 1 39.6143 38.0641 36.3368 0 0 0 -0.0987085 0.155461 0.211797 0 
2 1 37.8307 39.8887 35.1238 0 0 0 -0.208295 0.0285809 0.357331 0 
4 1 37.0745 37.8194 39.5781 0 0 0 0.249456 0.167567 -0.0904619 0 
7 1 39.8679 38.295 39.1859 0 0 0 0.0593287 -0.157055 -0.0276498 0 
8 1 38.6476 36.1102 38.0477 0 0 0 0.292562 0.0847225 0.28052 0 
13 1 35.2391 39.5004 35.6265 0 0 0 0.648466 0.0960512 0.518826 0 
14 1 35.4004 39.6469 38.2949 0 0 0 0.171001 0.118048 -0.247486 0 
17 1 36.8937 37.7523 36.8004 0 0 0 -0.0716031 0.337665 -0.0535233 0 
26 1 38.7312 42.5566 35.2485 0 0 0 0.137775 -0.144155 0.164816 0 
30 1 38.0722 39.9178 37.8626 0 0 0 -0.101428 -0.151893 0.0250528 0 
32 1 38.0358 41.9986 39.6202 0 0 0 -0.113554 0.226289 0.0144349 0 
36 1 36.3738 41.6817 36.6636 0 0 0 0.110488 -0.207615 0.194409 0 
37 1 35.3812 42.2234 39.2974 0 0 0 0.560585 -0.0357959 -0.104463 0 
39 1 36.8414 44.4942 39.8596 0 0 0 0.273506 -0.36741 -0.0554326 0 
40 1 39.3909 45.3849 38.964 0 0 0 0.0282361 -0.766971 -0.04663 0 
44 1 39.8698 44.9778 36.1034 0 0 0 -0.0845383 -0.785612 0.575979 0 
47 1 37.8939 43.7314 37.489 0 0 0 0.212451 0.069202 0.15988 0 
15 1 39.0095 36.318 40.8562 0 0 0 0.159445 -0.0131559 -0.285172 0 
20 1 37.6854 38.2648 42.247 0 0 0 0.0656072 0.259504 0.109157 0 
22 1 38.9654 39.3526 44.4905 0 0 0 0.100926 0.151939 -0.578789 0 
27 1 39.3283 40.1144 41.1131 0 0 0 -0.574913 -0.142815 0.317638 0 
34 1 38.8587 41.8247 43.177 0 0 0 -0.163067 -0.286781 -0.233974 0 
38 1 36.2386 40.1147 40.8446 0 0 0 0.40279 0.219746 0.0232426 0 
48 1 36.58 42.6417 41.8667 0 0 0 0.160576 -0.23758 -0.224859 0 
49 1 39.0391 43.9436 41.3482 0 0 0 -0.112532 0.0124266 -0.24155 0 
50 1 36.6195 40.4227 43.5363 0 0 0 0.576415 -0.0317275 -0.523866 0 
3 1 42.29 38.6614 36.4563 0 0 0 0.0168922 0.526165 0.0163512 0 
9 1 40.4275 34.6151 39.3499 0 0 0 -0.0953428 0.921925 0.0183635 0 
11 1 41.4229 36.5219 37.7958 0 0 0 -0.143556 -0.0866739 0.279144 0 
12 1 43.6204 37.993 38.7959 0 0 0 -0.0293835 0.0230813 0.205174 0 
23 1 40.446 40.3513 35.0822 0 0 0 0.248302 0.191465 0.402364 0 
24 1 41.4995 42.9037 35.4614 0 0 0 -0.192016 -0.200776 0.118141 0 
25 1 43.1111 40.7478 34.9377 0 0 0 -0.215011 -0.0568106 0.601842 0 
28 1 41.8766 40.097 38.7725 0 0 0 0.348324 -0.144842 -0.0648249 0 
31 1 43.3561 41.9557 37.3186 0 0 0 -0.41306 -0.363603 -0.368699 0 
35 1 40.0037 41.7571 37.487 0 0 0 0.216139 0.163456 -0.289555 0 
41 1 43.4767 43.135 39.6875 0 0 0 -0.160034 -0.194364 0.498173 0 
42 1 41.5547 44.0071 37.9664 0 0 0 -0.350686 0.0637724 0.0503345 0 
53 1 44.7609 39.6383 36.8025 0 0 0 -0.752597 0.18315 0.239374 0 
54 1 44.5819 40.6093 39.2958 0 0 0 -0.243968 -0.185076 -0.0600686 0 
5 1 41.7347 36.7765 40.5258 0 0 0 0.329266 0.102762 0.057691 0 
6 1 40.3896 37.9701 42.6443 0 0 0 0.217521 0.265182 0.0218775 0 
10 1 44.3459 36.2726 40.8485 0 0 0 -0.564856 0.589985 0.027659 0 
16 1 42.9976 37.1554 43.0188 0 0 0 -0.179599 0.494951 -0.337493 0 
18 1 43.565 39.7104 43.8607 0 0 0 -0.271635 -0.0859279 -0.000764503 0 
19 1 44.3747 38.8507 41.3636 0 0 0 -0.370905 -0.445465 -0.127802 0 
21 1 41.4929 38.3335 45.0623 0 0 0 0.0278363 0.354159 -0.74989 0 
29 1 41.9493 40.2006 41.7483 0 0 0 0.110198 -0.192518 0.094066 0 
33 1 40.8684 42.1994 40.11 0 0 0 0.112692 0.598063 0.106755 0 
43 1 43.4292 42.3983 44.2293 0 0 0 -0.264636 -0.192629 -0.684385 0 
45 1 41.5335 44.8944 40.6114 0 0 0 -0.0193283 -0.348669 -0.0314926 0 
46 1 43.6479 44.1388 42.1605 0 0 0 -0.392721 -0.568303 -0.0477524 0 
51 1 41.2219 43.079 42.7357 0 0 0 0.605718 -0.163944 -0.239471 0 
52 1 41.1613 40.9251 44.3675 0 0 0 0.0745909 -0.394531 -0.195567 0 
55 1 44.3126 41.4809 41.8252 0 0 0 -0.32912 0.547381 0.221231 0 
ITEM: TIMESTEP
1
ITEM: NUMBER OF ATOMS
55
ITEM: BOX BOUNDS pp pp pp
0.0000000000000000e+00 8.0000000000000000e+01
0.0000000000000000e+00 8.0000000000000000e+01
0.0000000000000000e+00 8.0000000000000000e+01
ITEM: ATOMS id type x y z vx vy vz fx fy fz q 
1 1 39.6036 38.081 36.3598 0 0 0 -0.00806711 0.0979024 0.129568 0 
2 1 37.8081 39.8918 35.1626 0 0 0 0.121952 0.0401221 0.0349563 0 
4 1 37.1015 37.8376 39.5683 0 0 0 0.143687 0.119148 0.00144682 0 
7 1 39.8743 38.2779 39.1829 0 0 0 0.147254 0.151279 0.0819522 0 
8 1 38.6793 36.1194 38.0782 0 0 0 -0.0925603 0.0574693 -0.0488956 0 
13 1 35.3094 39.5108 35.6828 0 0 0 0.0761512 0.0189912 0.0753039 0 
14 1 35.419 39.6597 38.268 0 0 0 -0.0644596 0.0179918 0.122027 0 
17 1 36.8859 37.7889 36.7946 0 0 0 0.00806676 -0.12483 -0.0140771 0 
26 1 38.7461 42.5409 35.2663 0 0 0 -0.080317 -0.139879 -0.0667401 0 
30 1 38.0612 39.9013 37.8653 0 0 0 0.203114 0.0709654 0.222069 0 
32 1 38.0235 42.0231 39.6218 0 0 0 0.373975 -0.101775 -0.132472 0 
36 1 36.3858 41.6592 36.6847 0 0 0 0.109179 0.203365 0.139876 0 
37 1 35.442 42.2195 39.2861 0 0 0 0.125643 0.0155217 -0.176946 0 
39 1 36.871 44.4543 39.8536 0 0 0 -0.030549 0.0471806 -0.00720458 0 
40 1 39.394 45.3017 38.959 0 0 0 0.0307394 -0.347819 0.0918833 0 
44 1 39.8606 44.8926 36.1659 0 0 0 -0.0934455 -0.32486 0.201296 0 
47 1 37.917 43.7389 37.5063 0 0 0 -0.11196 -0.0918797 -0.0307589 0 
15 1 39.0268 36.3166 40.8253 0 0 0 -0.0151937 0.0945598 0.0769376 0 
20 1 37.6925 38.293 42.2589 0 0 0 -0.0209812 -0.174998 0.0311351 0 
22 1 38.9763 39.3691 44.4277 0 0 0 -0.0122765 0.0590981 -0.242794 0 
27 1 39.2659 40.0989 41.1476 0 0 0 -0.232038 0.00576588 0.033381 0 
34 1 38.8411 41.7936 43.1516 0 0 0 0.155502 0.0859201 -0.173865 0 
38 1 36.2823 40.1385 40.8471 0 0 0 0.209243 0.00178065 -0.14839 0 
48 1 36.5974 42.6159 41.8423 0 0 0 -0.0109632 -0.00194899 0.00988948 0 
49 1 39.0269 43.9449 41.322 0 0 0 0.0147589 0.0148275 0.0934587 0 
50 1 36.682 40.4192 43.4795 0 0 0 0.143211 -0.0254921 -0.185494 0 
3 1 42.2918 38.7185 36.458 0 0 0 -0.244228 0.0447814 0.0861537 0 
9 1 40.4172 34.7151 39.3519 0 0 0 0.0617871 0.214895 0.109945 0 
11 1 41.4073 36.5125 37.8261 0 0 0 0.122546 0.104261 -0.0733448 0 
12 1 43.6172 37.9955 38.8182 0 0 0 -0.0107244 -0.0607396 -0.0416508 0 
23 1 40.4729 40.3721 35.1258 0 0 0 -0.00646408 -0.0149048 0.201228 0 
24 1 41.4787 42.8819 35.4742 0 0 0 0.0140619 0.0262932 -0.160232 0 
25 1 43.0878 40.7416 35.003 0 0 0 -0.0164238 0.0162769 -0.0573911 0 
28 1 41.9144 40.0813 38.7655 0 0 0 0.0204953 0.0373537 0.129121 0 
31 1 43.3113 41.9162 37.2786 0 0 0 -0.348121 0.0412177 0.0822742 0 
35 1 40.0272 41.7748 37.4555 0 0 0 0.103492 -0.0634443 0.152714 0 
41 1 43.4594 43.1139 39.7416 0 0 0 -0.0717385 -0.268779 0.0071614 0 
42 1 41.5167 44.014 37.9719 0 0 0 0.0985287 -0.010024 0.117482 0 
53 1 44.6793 39.6582 36.8285 0 0 0 -0.184554 0.00209296 0.180224 0 
54 1 44.5554 40.5892 39.2893 0 0 0 -0.120546 -0.025665 0.16209 0 
5 1 41.7704 36.7877 40.5321 0 0 0 0.0214141 0.201557 0.0740885 0 
6 1 40.4132 37.9988 42.6467 0 0 0 0.012607 0.0890283 -0.252161 0 
10 1 44.2846 36.3365 40.8515 0 0 0 -0.0489793 -0.0537139 -0.0609557 0 
16 1 42.9781 37.2091 42.9822 0 0 0 -0.126563 0.159165 0.0082253 0 
18 1 43.5355 39.7011 43.8606 0 0 0 0.120694 -0.0566878 0.055333 0 
19 1 44.3345 38.8024 41.3498 0 0 0 -0.126005 0.174231 -0.0830311 0 
21 1 41.4959 38.3719 44.981 0 0 0 0.046897 0.0546212 -0.19534 0 
29 1 41.9613 40.1797 41.7585 0 0 0 -0.115048 -0.0763228 -0.178693 0 
33 1 40.8806 42.2643 40.1216 0 0 0 -0.0632026 -0.0331788 -0.033074 0 
43 1 43.4005 42.3774 44.1551 0 0 0 -0.0657602 -0.12733 -0.0510399 0 
45 1 41.5314 44.8566 40.608 0 0 0 -0.0100635 0.0600013 0.00477249 0 
46 1 43.6053 44.0771 42.1553 0 0 0 0.0152812 0.0809825 0.0198425 0 
51 1 41.2876 43.0612 42.7097 0 0 0 0.00984386 -0.239979 -0.136243 0 
52 1 41.1694 40.8823 44.3463 0 0 0 -0.0959015 -0.0499444 -0.128416 0 
55 1 44.2769 41.5403 41.8492 0 0 0 -0.0829891 0.0055499 -0.0566264 0 
ITEM: TIMESTEP
2
ITEM: NUMBER OF ATOMS
55
ITEM: BOX BOUNDS pp pp pp
0.0000000000000000e+00 8.0000000000000000e+01
0.0000000000000000e+00 8.0000000000000000e+01
0.0000000000000000e+00 8.0000000000000000e+01
ITEM: ATOMS id type x y z vx vy vz fx fy fz q 
1 1 39.6006 38.1086 36.3964 0 0 0 -0.14481 -0.0741161 0.0776511 0 
2 1 37.839 39.9028 35.1751 0 0 0 -0.0930578 -0.0281296 0.161639 0 
4 1 37.1422 37.871 39.5679 0 0 0 0.0485066 -0.0171569 -0.0720041 0 
7 1 39.9143 38.3171 39.2046 0 0 0 0.0971195 -0.0980089 0.0417847 0 
8 1 38.6571 36.1355 38.0675 0 0 0 0.0929449 0.0789881 0.0603386 0 
13 1 35.3356 39.5167 35.7076 0 0 0 0.177453 0.0689714 0.171391 0 
14 1 35.4032 39.6656 38.2986 0 0 0 0.113903 -0.0174271 -0.120322 0 
17 1 36.8875 37.7584 36.7904 0 0 0 0.0122764 0.176913 0.058833 0 
26 1 38.7258 42.5022 35.2499 0 0 0 0.00193659 -0.102677 -0.0126921 0 
30 1 38.1148 39.919 37.9251 0 0 0 -0.242058 -0.168484 -0.157993 0 
32 1 38.1227 41.9978 39.5864 0 0 0 -0.167473 0.409359 0.151448 0 
36 1 36.4161 41.7119 36.7239 0 0 0 -0.0213195 -0.23906 -0.0228243 0 
37 1 35.4806 42.2233 39.2377 0 0 0 0.211603 0.0690461 -0.019874 0 
39 1 36.8653 44.4637 39.8512 0 0 0 0.019702 -0.141118 0.0541117 0 
40 1 39.4025 45.2017 38.9832 0 0 0 -0.0513655 -0.140157 0.122402 0 
44 1 39.8348 44.7986 36.2249 0 0 0 -0.0024884 -0.103707 -0.033596 0 
47 1 37.8888 43.7149 37.4995 0 0 0 -0.24526 0.00672448 0.0243289 0 
15 1 39.0241 36.3418 40.8434 0 0 0 -0.0361226 -0.0267527 -0.0180144 0 
20 1 37.6874 38.2483 42.2682 0 0 0 -0.18832 -0.28894 0.0551792 0 
22 1 38.9739 39.3863 44.3575 0 0 0 -0.036279 -0.0461892 -0.0244211 0 
27 1 39.1987 40.0992 41.1593 0 0 0 -0.0750988 -0.0955622 -0.00475308 0 
34 1 38.8813 41.8141 43.103 0 0 0 -0.0372223 0.224477 0.00392507 0 
38 1 36.3419 40.1409 40.8076 0 0 0 0.0248871 0.0868526 -0.116178 0 
48 1 36.5959 42.6133 41.843 0 0 0 0.0708537 0.0334409 -0.216881 0 
49 1 39.0299 43.949 41.3449 0 0 0 -0.105204 0.0658447 0.10445 0 
50 1 36.7254 40.4121 43.4252 0 0 0 -0.0345695 0.0346421 -0.0823342 0 
3 1 42.2265 38.7351 36.4813 0 0 0 0.00575784 0.0739621 0.000253294 0 
9 1 40.4329 34.7808 39.3815 0 0 0 0.0501893 0.19251 0.0288673 0 
11 1 41.4389 36.5397 37.8089 0 0 0 -0.0318262 -0.0424347 0.0370658 0 
12 1 43.6141 37.9794 38.8088 0 0 0 0.0535266 -0.122475 -0.0432611 0 
23 1 40.4734 40.3697 35.1833 0 0 0 0.0374266 0.0759884 -0.00577874 0 
24 1 41.4808 42.8872 35.4323 0 0 0 -0.0398643 -0.00965017 -0.0831685 0 
25 1 43.0815 40.7455 34.9929 0 0 0 0.0193022 0.0083932 -0.00312357 0 
28 1 41.923 40.09 38.7995 0 0 0 0.0057738 -0.0776979 0.13105 0 
31 1 43.2143 41.9241 37.2974 0 0 0 -0.153206 -0.0535991 -0.123923 0 
35 1 40.0568 41.7592 37.4939 0 0 0 0.132121 0.125722 -0.212085 0 
41 1 43.4387 43.0401 39.7479 0 0 0 -0.0359178 0.0430384 0.121421 0 
42 1 41.54 44.0119 38.0038 0 0 0 0.210395 0.051809 -0.0360643 0 
53 1 44.6232 39.6603 36.8789 0 0 0 -0.142768 0.0430955 0.0492732 0 
54 1 44.521 40.5807 39.3322 0 0 0 0.125984 0.0167915 -0.0628357 0 
5 1 41.7791 36.8426 40.5524 0 0 0 0.0802522 0.0713638 -0.0983109 0 
6 1 40.4185 38.025 42.5793 0 0 0 -0.138021 0.00346532 -0.0753114 0 
10 1 44.2665 36.3273 40.8354 0 0 0 -0.0216087 0.024381 -0.00576162 0 
16 1 42.9426 37.2561 42.9814 0 0 0 0.123311 -0.0525335 -0.0195102 0 
18 1 43.5655 39.6851 43.8755 0 0 0 0.0773947 0.0939017 -0.0506507 0 
19 1 44.2974 38.8452 41.3264 0 0 0 -0.0261435 -0.146457 0.025141 0 
21 1 41.5087 38.3896 44.922 0 0 0 -0.015306 -0.0437852 0.0489015 0 
29 1 41.9314 40.1575 41.7114 0 0 0 0.0027395 -0.0303171 -0.00360596 0 
33 1 40.8647 42.2606 40.1137 0 0 0 -0.0362111 0.0274715 0.04372 0 
43 1 43.3805 42.3416 44.1354 0 0 0 0.012251 -0.0377791 0.0538296 0 
45 1 41.5285 44.8696 40.609 0 0 0 0.10741 0.0140375 0.119998 0 
46 1 43.606 44.0939 42.1602 0 0 0 -0.0306102 0.048984 -0.0121505 0 
51 1 41.2956 42.9954 42.6711 0 0 0 0.172954 0.020722 -0.129504 0 
52 1 41.1443 40.8654 44.3102 0 0 0 0.0859689 -0.016878 -0.0229599 0 
55 1 44.2518 41.5466 41.836 0 0 0 -0.0218112 0.0301967 0.14289 0 
ITEM: TIMESTEP
3
ITEM: NUMBER OF ATOMS
55
ITEM: BOX BOUNDS pp pp pp
0.0000000000000000e+00 8.0000000000000000e+01
0.0000000000000000e+00 8.0000000000000000e+01
0.0000000000000000e+00 8.0000000000000000e+01
ITEM: ATOMS id type x y z vx vy vz fx fy fz q 
1 1 39.5731 38.1079 36.4272 0 0 0 0.0273926 -0.0864864 -0.053734 0 
2 1 37.8364 39.9028 35.2099 0 0 0 0.0788114 -0.0591054 -0.137741 0 
4 1 37.1696 37.8832 39.5547 0 0 0 -0.0360598 -0.0957433 0.087378 0 
7 1 39.9502 38.3174 39.2221 0 0 0 -0.0474993 -0.00814331 0.00523332 0 
8 1 38.6636 36.1571 38.0735 0 0 0 0.0398659 -0.0518414 0.0196363 0 
13 1 35.3795 39.5319 35.7498 0 0 0 -0.224514 -0.00747816 -0.150769 0 
14 1 35.4165 39.6651 38.2909 0 0 0 -0.127612 -0.0816261 0.0858687 0 
17 1 36.8904 37.7763 36.799 0 0 0 -0.0687455 -0.173989 -0.000225567 0 
26 1 38.7169 42.4659 35.2401 0 0 0 -0.0194453 0.0396313 -0.00286719 0 
30 1 38.0957 39.8968 37.924 0 0 0 0.0974906 0.209965 0.12193 0 
32 1 38.138 42.0599 39.5974 0 0 0 0.16403 -0.000365083 -0.0431299 0 
36 1 36.4261 41.693 36.7377 0 0 0 -0.0822331 -0.0156054 -0.157006 0 
37 1 35.5364 42.2375 39.212 0 0 0 -0.139956 0.0657918 -0.0414769 0 
39 1 36.8662 44.4427 39.8598 0 0 0 -0.135381 0.265416 0.0606741 0 
40 1 39.3971 45.1307 39.0163 0 0 0 0.051918 -0.13321 -0.00452331 0 
44 1 39.8226 44.7368 36.2459 0 0 0 0.00162467 -0.0653583 0.00641939 0 
47 1 37.8318 43.7051 37.5007 0 0 0 -0.145556 0.117831 -0.140233 0 
15 1 39.0164 36.3485 40.8485 0 0 0 -0.0868787 -0.0787289 0.05557 0 
20 1 37.6512 38.1759 42.2824 0 0 0 -0.199421 -0.0782343 0.0421536 0 
22 1 38.9663 39.3858 44.321 0 0 0 -0.024372 -0.00384516 -0.0512369 0 
27 1 39.1543 40.0821 41.1638 0 0 0 -0.0949289 -0.0419326 0.0483945 0 
34 1 38.893 41.8639 43.0814 0 0 0 -0.0376815 0.0257711 0.0975052 0 
38 1 36.3737 40.1577 40.7685 0 0 0 -0.025195 -0.0595955 0.0126034 0 
48 1 36.6079 42.6181 41.8043 0 0 0 -0.0773255 0.0304462 0.0784461 0 
49 1 39.0123 43.9627 41.3743 0 0 0 0.0752946 0.20448 0.224755 0 
50 1 36.7391 40.4151 43.3854 0 0 0 0.0292567 -0.00591439 -0.0974447 0 
3 1 42.1976 38.7561 36.492 0 0 0 -0.00376537 0.0143558 0.012216 0 
9 1 40.4491 34.8456 39.4003 0 0 0 0.0802842 -0.0638064 0.0323216 0 
11 1 41.4477 36.5445 37.8077 0 0 0 0.030436 -0.0536298 -0.0981009 0 
12 1 43.6223 37.95 38.7967 0 0 0 0.102624 -0.0415971 -0.0788849 0 
23 1 40.4803 40.3824 35.2086 0 0 0 0.0164443 -0.0268989 -0.134169 0 
24 1 41.4745 42.8879 35.3981 0 0 0 0.00145623 0.0794112 -0.144305 0 
25 1 43.0821 40.7488 34.9877 0 0 0 0.0503839 -0.001592 -0.104173 0 
28 1 41.9279 40.08 38.8387 0 0 0 0.0778091 -0.0546052 0.0848003 0 
31 1 43.1423 41.918 37.2837 0 0 0 -0.0183046 -0.0752773 -0.00738398 0 
35 1 40.0942 41.7747 37.4733 0 0 0 -0.064801 0.11351 -0.00943279 0 
41 1 43.4228 43.0141 39.7726 0 0 0 -0.00101245 0.0544146 0.0487118 0 
42 1 41.5886 44.0202 38.012 0 0 0 0.109325 0.152683 -0.0367479 0 
53 1 44.5718 39.6691 36.9109 0 0 0 0.0196386 0.0250487 -0.0293696 0 
54 1 44.5279 40.5798 39.3406 0 0 0 0.110489 0.0399531 -0.0375305 0 
5 1 41.7975 36.8806 40.5441 0 0 0 0.0943293 0.0379388 0.00932691 0 
6 1 40.3961 38.0377 42.5348 0 0 0 -0.0723424 -0.0495512 0.11085 0 
10 1 44.2544 36.3275 40.827 0 0 0 0.0984781 -0.0886585 0.0149117 0 
16 1 42.9486 37.2682 42.9776 0 0 0 0.0521758 -0.0646892 0.0565186 0 
18 1 43.5932 39.6947 43.8731 0 0 0 0.00524451 0.0123734 -0.0407777 0 
19 1 44.2758 38.8384 41.3202 0 0 0 0.0464092 -0.070201 -0.00630294 0 
21 1 41.5119 38.3899 44.9038 0 0 0 -0.0352185 -0.0312977 -0.0217001 0 
29 1 41.9182 40.1419 41.6892 0 0 0 0.0178318 -0.0102356 0.0807532 0 
33 1 40.8509 42.2639 40.1179 0 0 0 -0.0794195 0.0303095 -0.0704469 0 
43 1 43.3736 42.3183 44.136 0 0 0 0.0643523 0.0730504 0.180332 0 
45 1 41.5466 44.8781 40.6311 0 0 0 0.0403232 0.0299423 0.0434658 0 
46 1 43.6007 44.1103 42.1603 0 0 0 0.0912308 0.103698 0.0426414 0 
51 1 41.3304 42.969 42.6301 0 0 0 0.109197 0.0465249 -0.0102091 0 
52 1 41.1483 40.8547 44.2895 0 0 0 0.0255497 -0.0442139 -0.0175808 0 
55 1 44.2363 41.5549 41.8556 0 0 0 0.0379732 -0.049089 0.064084 0 
ITEM: TIMESTEP
4
ITEM: NUMBER OF ATOMS
55
ITEM: BOX BOUNDS pp pp pp
0.0000000000000000e+00 8.0000000000000000e+01
0.0000000000000000e+00 8.0000000000000000e+01
0.0000000000000000e+00 8.0000000000000000e+01
ITEM: ATOMS id type x y z vx vy vz fx fy fz q 
1 1 39.5544 38.0854 36.4423 0 0 0 0.00853734 0.0564756 -0.0604082 0 
2 1 37.8538 39.8878 35.2077 0 0 0 -0.0112461 -0.141904 0.0030628 0 
4 1 37.1861 37.8704 39.5645 0 0 0 -0.0653162 -0.0259736 0.0140145 0 
7 1 39.9716 38.3156 39.2398 0 0 0 -0.155582 -0.0340084 -0.0465063 0 
8 1 38.6798 36.1642 38.0841 0 0 0 0.00924117 -0.108662 0.0191764 0 
13 1 35.3637 39.5441 35.7511 0 0 0 -0.0990545 -0.112648 -0.0808959 0 
14 1 35.3967 39.6441 38.3054 0 0 0 0.0124567 -0.0381574 -0.041544 0 
17 1 36.8757 37.749 36.807 0 0 0 -0.0232179 0.110105 0.0531907 0 
26 1 38.7036 42.4421 35.2302 0 0 0 -0.0483494 0.0457884 -0.00353378 0 
30 1 38.1026 39.9291 37.9538 0 0 0 0.00999271 0.0582671 0.0221589 0 
32 1 38.1938 42.1179 39.5969 0 0 0 -0.149147 0.146255 0.00321927 0 
36 1 36.4147 41.6714 36.711 0 0 0 -0.0663169 -0.0439704 -0.0976304 0 
37 1 35.5531 42.2674 39.1775 0 0 0 0.0414788 -0.00155061 -0.00640054 0 
39 1 36.8328 44.49 39.8832 0 0 0 0.0729377 0.050231 0.032021 0 
40 1 39.4052 45.0307 39.0461 0 0 0 0.0138507 -0.247347 -0.0639258 0 
44 1 39.8115 44.6627 36.2671 0 0 0 0.0187284 0.00451595 0.0655158 0 
47 1 37.7417 43.7257 37.4664 0 0 0 -0.147832 0.100375 0.0370704 0 
15 1 38.9872 36.3349 40.8672 0 0 0 0.0155814 -0.0469725 0.0345109 0 
20 1 37.567 38.0884 42.3063 0 0 0 -0.0555457 0.0881454 -0.00758413 0 
22 1 38.953 39.3844 44.2739 0 0 0 -0.0243021 0.0301604 -0.027167 0 
27 1 39.089 40.0556 41.1803 0 0 0 -0.0186292 0.0102614 0.130273 0 
34 1 38.8945 41.9169 43.0859 0 0 0 0.0633211 -0.0728254 0.0302202 0 
38 1 36.3971 40.1582 40.7352 0 0 0 -0.10843 0.0187024 -0.0691601 0 
48 1 36.5997 42.6303 41.7879 0 0 0 0.0142402 0.0547486 -0.0234399 0 
49 1 39.0149 44.0272 41.4584 0 0 0 0.0101602 0.105292 0.0647409 0 
50 1 36.7593 40.4164 43.3237 0 0 0 0.00701303 -0.0177122 -0.0345084 0 
3 1 42.1697 38.7792 36.505 0 0 0 -0.0359432 0.025857 0.0365905 0 
9 1 40.4846 34.89 39.426 0 0 0 0.0821264 -0.0827185 0.0484313 0 
11 1 41.4635 36.5354 37.7818 0 0 0 0.0232818 -0.000400097 -0.0495118 0 
12 1 43.6559 37.912 38.7655 0 0 0 0.0970767 0.0253156 -0.0334888 0 
23 1 40.491 40.3874 35.1983 0 0 0 0.00267476 -0.0172674 -0.0950127 0 
24 1 41.4691 42.9086 35.3297 0 0 0 0.0579324 -0.0281765 -0.0467779 0 
25 1 43.0954 40.7514 34.9565 0 0 0 -0.0156009 0.0136048 -0.0695278 0 
28 1 41.9522 40.0569 38.8967 0 0 0 0.127528 -0.00532433 0.0269905 0 
31 1 43.0705 41.8934 37.2691 0 0 0 -0.0225785 -0.0337792 0.0671921 0 
35 1 40.1127 41.8179 37.4517 0 0 0 -0.0615275 0.122875 0.0273253 0 
41 1 43.4077 43.0035 39.808 0 0 0 -0.0230827 -0.0436087 0.00243513 0 
42 1 41.6615 44.0666 38.0103 0 0 0 0.0371054 0.0819953 -0.0298679 0 
53 1 44.5287 39.6836 36.9333 0 0 0 0.142321 0.00879184 -0.105776 0 
54 1 44.5622 40.5891 39.3389 0 0 0 0.00140679 0.0376545 0.0709603 0 
5 1 41.8385 36.9257 40.5386 0 0 0 0.00547105 0.0587669 0.0614191 0 
6 1 40.3569 38.0369 42.5214 0 0 0 0.0323409 -0.153106 0.0614724 0 
10 1 44.2679 36.3053 40.8229 0 0 0 0.106414 -0.0903567 0.0252178 0 
16 1 42.9673 37.2631 42.9883 0 0 0 -0.0473632 -0.0247861 0.0338467 0 
18 1 43.6203 39.7068 43.8607 0 0 0 -0.0536015 -0.0591064 0.00581043 0 
19 1 44.2672 38.8144 41.3128 0 0 0 0.0369995 0.0376538 -0.105302 0 
21 1 41.5059 38.3822 44.8813 0 0 0 -0.00563035 -0.0265429 -0.0595105 0 
29 1 41.9104 40.1248 41.6889 0 0 0 -0.0391296 -0.0036522 0.0887205 0 
33 1 40.8179 42.2746 40.1041 0 0 0 0.045794 0.0771087 -0.0510723 0 
43 1 43.3834 42.3151 44.1822 0 0 0 0.0365194 0.115734 0.0669958 0 
45 1 41.5736 44.8936 40.6627 0 0 0 -0.0387256 0.00839772 -0.0542327 0 
46 1 43.6189 44.1519 42.1711 0 0 0 0.167094 -0.0142532 0.104054 0 
51 1 41.3904 42.9561 42.5892 0 0 0 0.0368391 -0.0581108 0.0834796 0 
52 1 41.1585 40.8334 44.2657 0 0 0 -0.0114979 0.0448784 -0.0397313 0 
55 1 44.2315 41.5503 41.8902 0 0 0 -0.00881603 -0.00503726 -0.0176003 0 
ITEM: TIMESTEP
5
ITEM: NUMBER OF ATOMS
55
ITEM: BOX BOUNDS pp pp pp
0.0000000000000000e+00 8.0000000000000000e+01
0.0000000000000000e+00 8.0000000000000000e+01
0.0000000000000000e+00 8.0000000000000000e+01
ITEM: ATOMS id type x y z vx vy vz fx fy fz q 
1 1 39.5505 38.0933 36.4309 0 0 0 -0.0107868 -0.0180394 0.0601516 0 
2 1 37.8566 39.8445 35.2077 0 0 0 -0.0604159 0.0119371 0.0528451 0 
4 1 37.1738 37.8592 39.5716 0 0 0 0.00505848 -0.0301237 -0.00207706 0 
7 1 39.9365 38.3058 39.233 0 0 0 0.0131434 -0.0395445 -0.00865257 0 
8 1 38.6877 36.1371 38.0927 0 0 0 0.0749159 0.0079579 0.04471 0 
13 1 35.3317 39.5177 35.7296 0 0 0 -0.00815904 -0.0623192 -0.0348376 0 
14 1 35.3935 39.6268 38.299 0 0 0 0.0118615 0.0207731 -0.121952 0 
17 1 36.8646 37.7698 36.8241 0 0 0 0.0629687 0.0516176 0.0755229 0 
26 1 38.6861 42.4466 35.226 0 0 0 -0.00438186 -0.0558134 0.099018 0 
30 1 38.1075 39.9555 37.9697 0 0 0 -0.0346199 0.0696022 0.000830023 0 
32 1 38.1718 42.1766 39.5976 0 0 0 0.114457 -0.0806779 0.0805226 0 
36 1 36.3929 41.6523 36.6757 0 0 0 0.0291047 -0.0788666 -0.0541672 0 
37 1 35.5699 42.2769 39.1644 0 0 0 -0.0468176 0.00165395 -0.0802159 0 
39 1 36.8415 44.5193 39.8996 0 0 0 -0.0154275 0.115767 0.0741552 0 
40 1 39.4116 44.9307 39.0386 0 0 0 0.0309676 -0.131306 -0.00724128 0 
44 1 39.813 44.6394 36.2919 0 0 0 -0.0160477 -0.0555063 -0.0168739 0 
47 1 37.6719 43.7597 37.4652 0 0 0 -0.195495 -0.0355797 -0.151446 0 
15 1 38.9818 36.3177 40.8828 0 0 0 0.0459525 0.00355318 -0.065946 0 
20 1 37.5242 38.0834 42.3121 0 0 0 0.0408543 0.0194491 -0.0827104 0 
22 1 38.942 39.3921 44.251 0 0 0 0.0300708 -0.0294046 0.00933212 0 
27 1 39.0623 40.0496 41.221 0 0 0 0.0111608 0.0147876 -0.0397306 0 
34 1 38.9121 41.9147 43.0955 0 0 0 0.00819841 0.0884527 -0.0393827 0 
38 1 36.3754 40.1635 40.7055 0 0 0 -0.0239981 0.0348698 -0.0178757 0 
48 1 36.6008 42.6492 41.7762 0 0 0 0.0556545 0.00151885 0.045362 0 
49 1 39.0185 44.077 41.5037 0 0 0 0.0522119 -0.0563903 0.0682031 0 
50 1 36.7679 40.412 43.294 0 0 0 -0.0700036 0.0557378 -0.0337214 0 
3 1 42.1507 38.7939 36.5193 0 0 0 0.0873083 0.120541 0.0593898 0 
9 1 40.5185 34.8822 39.4476 0 0 0 0.058454 0.128728 0.014668 0 
11 1 41.4751 36.5323 37.7598 0 0 0 -0.0704058 0.0527892 0.14437 0 
12 1 43.6933 37.9063 38.7461 0 0 0 0.0285071 -0.0139768 0.0069565 0 
23 1 40.4952 40.3843 35.1692 0 0 0 -0.0484793 0.112377 0.024648 0 
24 1 41.483 42.9078 35.2945 0 0 0 -0.0234377 -0.089219 0.0761576 0 
25 1 43.0955 40.756 34.9274 0 0 0 -0.0318123 -0.0101466 0.0883184 0 
28 1 41.9948 40.0478 38.9232 0 0 0 -0.0680851 -0.0954477 0.0998115 0 
31 1 43.0406 41.8761 37.2824 0 0 0 -0.0246413 -0.0661447 -0.0598245 0 
35 1 40.1021 41.8654 37.452 0 0 0 -0.0293593 0.0731937 -0.0762265 0 
41 1 43.3964 42.9882 39.8204 0 0 0 -0.0128989 0.0501554 0.0659503 0 
42 1 41.6957 44.1041 38.0017 0 0 0 0.154622 -0.00338595 -0.0672038 0 
53 1 44.5531 39.6908 36.9121 0 0 0 -0.0520414 0.0470987 -0.0239165 0 
54 1 44.574 40.6024 39.3575 0 0 0 0.0622196 -0.00617848 -0.103912 0 
5 1 41.8535 36.9565 40.5534 0 0 0 0.0662911 0.0644984 -0.152246 0 
6 1 40.3527 37.9952 42.5335 0 0 0 -0.0905052 -0.0890659 -0.0214615 0 
10 1 44.3011 36.2735 40.8284 0 0 0 -0.0928137 0.130557 0.0141712 0 
16 1 42.9606 37.2547 43.0009 0 0 0 0.0847118 -0.0269969 -0.110985 0 
18 1 43.6148 39.6948 43.8581 0 0 0 -0.0240745 0.0443668 -0.0287012 0 
19 1 44.2744 38.8166 41.2819 0 0 0 -0.0843338 -0.105991 0.0016865 0 
21 1 41.5024 38.3725 44.8578 0 0 0 -0.0217186 0.00283529 0.0375927 0 
29 1 41.8972 40.1181 41.7128 0 0 0 -0.0522881 -0.0484525 -0.0142606 0 
33 1 40.8194 42.2991 40.0857 0 0 0 -0.0613278 -0.0119246 0.0497234 0 
43 1 43.3965 42.3454 44.2156 0 0 0 0.0346552 0.00330101 -0.0511038 0 
45 1 41.572 44.901 40.6584 0 0 0 0.0760151 -0.0868172 0.0791195 0 
46 1 43.6702 44.1618 42.2029 0 0 0 -0.029644 -0.125099 0.00171143 0 
51 1 41.4203 42.9361 42.5983 0 0 0 0.0866782 0.081773 -0.106926 0 
52 1 41.1588 40.8386 44.2471 0 0 0 0.0467153 0.0192368 0.0960358 0 
55 1 44.2275 41.5474 41.8968 0 0 0 -0.0687387 0.0232888 0.102634 0 
ITEM: TIMESTEP
6
ITEM: NUMBER OF ATOMS
55
ITEM: BOX BOUNDS pp pp pp
0.0000000000000000e+00 8.0000000000000000e+01
0.0000000000000000e+00 8.0000000000000000e+01
0.0000000000000000e+00 8.0000000000000000e+01
ITEM: ATOMS id type x y z vx vy vz fx fy fz q 
1 1 39.5456 38.0958 36.4338 0 0 0 0.0425941 0.00327349 0.0811597 0 
2 1 37.8472 39.8141 35.2178 0 0 0 -0.0322808 0.0600397 -0.00138103 0 
4 1 37.1656 37.845 39.5765 0 0 0 0.0122279 0.0268241 0.00236464 0 
7 1 39.9127 38.291 39.2263 0 0 0 0.022744 0.0914462 0.0457809 0 
8 1 38.7077 36.1183 38.1077 0 0 0 -0.00692327 0.0227317 -0.0204987 0 
13 1 35.3061 39.486 35.7069 0 0 0 -0.011107 -0.0495284 -0.0614412 0 
14 1 35.3933 39.6177 38.271 0 0 0 -0.0359338 0.0623743 -0.0508867 0 
17 1 36.8682 37.7953 36.8512 0 0 0 0.0856165 -0.0762663 0.0392604 0 
26 1 38.6721 42.4395 35.2415 0 0 0 -0.0660656 -0.0485531 0.0194582 0 
30 1 38.1047 39.9886 37.9817 0 0 0 0.0104497 0.0413532 0.0392144 0 
32 1 38.177 42.2054 39.6133 0 0 0 0.0050412 -0.0387093 0.0260752 0 
36 1 36.3821 41.6231 36.639 0 0 0 -0.00812838 -0.0155105 -0.011622 0 
37 1 35.5736 42.2843 39.1393 0 0 0 0.0675638 0.0548288 -0.065825 0 
39 1 36.8452 44.5632 39.926 0 0 0 0.0479707 -0.0696917 0.00411245 0 
40 1 39.4223 44.8307 39.0317 0 0 0 -0.00700321 -0.120095 -0.022871 0 
44 1 39.811 44.6114 36.3073 0 0 0 -0.0628245 -0.0455327 0.00110331 0 
47 1 37.5825 43.7785 37.4355 0 0 0 -0.0989144 -0.0614492 0.0176026 0 
15 1 38.9865 36.3055 40.882 0 0 0 -0.0155529 0.00639746 -0.0365587 0 
20 1 37.4997 38.0833 42.3008 0 0 0 0.0680777 0.00756326 -0.0772142 0 
22 1 38.9395 39.3924 44.2356 0 0 0 0.0568298 -0.00140059 -0.0366618 0 
27 1 39.0444 40.0479 41.2441 0 0 0 0.0254105 -0.0151112 -0.0976569 0 
34 1 38.9269 41.9298 43.0953 0 0 0 0.00759427 0.0555709 -0.0276272 0 
38 1 36.3546 40.174 40.6798 0 0 0 0.0409642 0.0395723 -0.0162608 0 
48 1 36.6122 42.6636 41.7759 0 0 0 0.0487024 0.00345767 -0.00124384 0 
49 1 39.0311 44.1038 41.5507 0 0 0 0.0177564 -0.0645999 -0.0201695 0 
50 1 36.761 40.4193 43.2653 0 0 0 -0.0148698 0.06339 -0.0220132 0 
3 1 42.153 38.8277 36.5412 0 0 0 0.000114119 0.0840282 0.0603246 0 
9 1 40.5551 34.9008 39.4666 0 0 0 0.0656995 0.0361832 0.0354493 0 
11 1 41.4704 36.54 37.7706 0 0 0 0.00410229 0.101214 0.0448625 0 
12 1 43.7267 37.8994 38.7329 0 0 0 0.0423596 0.0145198 -0.0721145 0 
23 1 40.4892 40.4033 35.152 0 0 0 -0.0847695 0.00838489 0.0827963 0 
24 1 41.489 42.8903 35.2824 0 0 0 -0.0207694 0.0255607 0.0494441 0 
25 1 43.0896 40.7575 34.9222 0 0 0 0.0176928 -0.0306453 0.00777356 0 
28 1 42.0139 40.0229 38.962 0 0 0 -0.0979785 -0.0589142 0.127639 0 
31 1 43.0135 41.8506 37.2811 0 0 0 -0.0288562 -0.0421323 0.0506812 0 
35 1 40.0887 41.915 37.4378 0 0 0 0.00337536 0.0191369 0.0752792 0 
41 1 43.3855 42.9862 39.8421 0 0 0 0.0181833 -0.0105913 -0.0105024 0 
42 1 41.7506 44.1317 37.9824 0 0 0 0.125657 -0.0440441 -0.0321354 0 
53 1 44.5615 39.7051 36.8916 0 0 0 -0.0176708 0.0257689 0.0428149 0 
54 1 44.5946 40.6112 39.3519 0 0 0 0.00223864 -0.0130166 -0.0931068 0 
5 1 41.8774 36.9919 40.5358 0 0 0 -0.00466039 0.121068 -0.100448 0 
6 1 40.3324 37.947 42.5386 0 0 0 -0.050542 -0.00596333 -0.027018 0 
10 1 44.3086 36.2743 40.8352 0 0 0 -0.0405248 0.0334695 -0.0132063 0 
16 1 42.9717 37.2433 42.9895 0 0 0 0.0219057 0.00586609 -0.0379037 0 
18 1 43.6061 39.6942 43.8508 0 0 0 -0.0174442 0.030028 -0.0105125 0 
19 1 44.2639 38.7982 41.2589 0 0 0 -0.0825082 0.0726913 0.0341184 0 
21 1 41.4956 38.3657 44.8472 0 0 0 -0.0197274 0.0316536 -0.0166673 0 
29 1 41.8774 40.1039 41.7281 0 0 0 -0.0814559 -0.0820378 -0.00164529 0 
33 1 40.8089 42.3151 40.0812 0 0 0 -0.0212773 -0.115674 0.0155697 0 
43 1 43.4129 42.3688 44.231 0 0 0 0.0195458 -0.0614021 0.0282783 0 
45 1 41.5852 44.8901 40.6702 0 0 0 0.0642624 -0.0168064 0.0339735 0 
46 1 43.7031 44.1455 42.2271 0 0 0 0.0185877 0.0149354 -0.0214236 0 
51 1 41.4591 42.9366 42.5849 0 0 0 -0.0205793 0.00752504 -0.0560562 0 
52 1 41.1678 40.8461 44.2513 0 0 0 0.0257389 0.0160365 0.10923 0 
55 1 44.2115 41.5496 41.9213 0 0 0 -0.0406392 -0.0992182 -0.0116939 0 
ITEM: TIMESTEP
7
ITEM: NUMBER OF ATOMS
55
ITEM: BOX BOUNDS pp pp pp
0.0000000000000000e+00 8.0000000000000000e+01
0.0000000000000000e+00 8.0000000000000000e+01
0.0000000000000000e+00 8.0000000000000000e+01
ITEM: ATOMS id type x y z vx vy vz fx fy fz q 
1 1 39.5571 38.0976 36.4596 0 0 0 -0.0211072 0.0695897 -0.00971988 0 
2 1 37.8343 39.8229 35.2206 0 0 0 -0.0421424 -0.084504 0.0181152 0 
4 1 37.1667 37.8488 39.5787 0 0 0 -0.0408261 0.0505348 -0.0488662 0 
7 1 39.9121 38.3144 39.2382 0 0 0 -0.163899 0.0116287 -0.00752552 0 
8 1 38.712 36.1193 38.1062 0 0 0 0.0284245 -0.0283946 0.0305852 0 
13 1 35.2946 39.4607 35.6808 0 0 0 0.0697203 -0.0792318 0.0262861 0 
14 1 35.3822 39.634 38.2465 0 0 0 0.0303088 -0.00220508 -0.0451605 0 
17 1 36.8956 37.7799 36.8719 0 0 0 -0.0219142 0.0722778 -0.0257145 0 
26 1 38.6474 42.4223 35.2524 0 0 0 -0.0265904 0.0341866 -0.00680818 0 
30 1 38.107 40.0117 37.9976 0 0 0 -0.0337904 -0.0431219 -0.0406945 0 
32 1 38.1802 42.2027 39.6263 0 0 0 0.0109492 -0.0375147 -0.0241614 0 
36 1 36.3762 41.6091 36.6237 0 0 0 -0.120167 -0.0514698 -0.0749093 0 
37 1 35.5955 42.3035 39.1111 0 0 0 -0.0490938 0.0160386 -0.0324544 0 
39 1 36.861 44.5557 39.9356 0 0 0 -0.00877464 0.0575527 -0.00324981 0 
40 1 39.4236 44.762 39.0224 0 0 0 0.139877 -0.0878348 -0.0668859 0 
44 1 39.7911 44.5885 36.3125 0 0 0 -0.0360105 -0.0467016 0.0624864 0 
47 1 37.5237 43.7656 37.4315 0 0 0 0.0149297 0.0273158 0.0161466 0 
15 1 38.9832 36.3036 40.8705 0 0 0 -0.0129968 -0.0585792 -0.0444416 0 
20 1 37.5128 38.0856 42.2736 0 0 0 -0.0238247 0.0490915 0.0283135 0 
22 1 38.9561 39.392 44.2194 0 0 0 -0.0216635 0.0878728 -0.062208 0 
27 1 39.0465 40.0427 41.2214 0 0 0 -0.013157 0.0614691 0.0232652 0 
34 1 38.9339 41.9517 43.0868 0 0 0 0.0509377 -0.128051 0.033014 0 
38 1 36.3606 40.1895 40.6667 0 0 0 -0.0227893 -0.00956307 -0.0490457 0 
48 1 36.6307 42.6693 41.7755 0 0 0 -0.0628051 0.0212387 0.0684508 0 