  20  20   0   0
  0.4000000E+03  0.2000000E-08  0.2000000E-08  0.2000000E-08  0.5000000E-15
  1.000000000000000E-004
  CAR 
 unknown system                          
      1.83903131    -12.53983676  301     -5.32821148      1.00000000
    -12.540  0.0000E+00  0.0000E+00
    -12.492  0.0000E+00  0.0000E+00
    -12.444  0.0000E+00  0.0000E+00
    -12.396  0.0000E+00  0.0000E+00
    -12.348 -0.4028E-26 -0.1931E-27
    -12.300 -0.6974E-23 -0.3345E-24
    -12.252 -0.7598E-20 -0.3645E-21
    -12.204 -0.5204E-17 -0.2498E-18
    -12.156 -0.2239E-14 -0.1076E-15
    -12.108 -0.5859E-12 -0.2819E-13
    -12.061 -0.9855E-10 -0.4751E-11
    -12.013 -0.1034E-07 -0.5006E-09
    -11.965 -0.6754E-06 -0.3287E-07
    -11.917 -0.2728E-04 -0.1340E-05
    -11.869 -0.6755E-03 -0.3372E-04
    -11.821 -0.1010E-01 -0.5179E-03
    -11.773 -0.8850E-01 -0.4760E-02
    -11.725 -0.4229E+00 -0.2503E-01
    -11.677 -0.8432E+00 -0.6545E-01
    -11.629  0.9384E+00 -0.2047E-01
    -11.581  0.7966E+01  0.3613E+00
    -11.533  0.1562E+02  0.1110E+01
    -11.485  0.1412E+02  0.1787E+01
    -11.437  0.5586E+01  0.2055E+01
    -11.390  0.3724E-02  0.2055E+01
    -11.342 -0.7951E+00  0.2017E+01
    -11.294 -0.2957E+00  0.2003E+01
    -11.246 -0.5184E-01  0.2000E+01
    -11.198 -0.5093E-02  0.2000E+01
    -11.150 -0.2966E-03  0.2000E+01
    -11.102 -0.2591E-04  0.2000E+01
    -11.054 -0.4194E-03  0.2000E+01
    -11.006 -0.6946E-02  0.2000E+01
    -10.958 -0.6913E-01  0.1996E+01
    -10.910 -0.3981E+00  0.1977E+01
    -10.862 -0.1193E+01  0.1920E+01
    -10.814 -0.9201E+00  0.1876E+01
    -10.766  0.5436E+01  0.2137E+01
    -10.719  0.2106E+02  0.3146E+01
    -10.671  0.3756E+02  0.4946E+01
    -10.623  0.3896E+02  0.6814E+01
    -10.575  0.2240E+02  0.7887E+01
    -10.527  0.4425E+01  0.8099E+01
    -10.479 -0.1586E+01  0.8023E+01
    -10.431  0.3808E+01  0.8206E+01
    -10.383  0.1276E+02  0.8818E+01
    -10.335  0.1411E+02  0.9494E+01
    -10.287  0.9190E+01  0.9934E+01
    -10.239  0.1418E+02  0.1061E+02
    -10.191  0.2786E+02  0.1195E+02
    -10.143  0.2868E+02  0.1332E+02
    -10.095  0.1674E+02  0.1413E+02
    -10.047  0.1201E+02  0.1470E+02
    -10.000  0.1853E+02  0.1559E+02
     -9.952  0.3258E+02  0.1715E+02
     -9.904  0.5071E+02  0.1958E+02
     -9.856  0.5960E+02  0.2244E+02
     -9.808  0.4883E+02  0.2478E+02
     -9.760  0.2467E+02  0.2596E+02
     -9.712  0.4757E+01  0.2619E+02
     -9.664 -0.1995E+01  0.2609E+02
     -9.616 -0.1508E+01  0.2602E+02
     -9.568 -0.4705E+00  0.2600E+02
     -9.520 -0.4745E+00  0.2598E+02
     -9.472 -0.1526E+01  0.2590E+02
     -9.424 -0.1960E+01  0.2581E+02
     -9.376  0.5013E+01  0.2605E+02
     -9.329  0.2439E+02  0.2722E+02
     -9.281  0.4573E+02  0.2941E+02
     -9.233  0.5602E+02  0.3210E+02
     -9.185  0.5905E+02  0.3493E+02
     -9.137  0.6005E+02  0.3780E+02
     -9.089  0.5477E+02  0.4043E+02
     -9.041  0.4401E+02  0.4254E+02
     -8.993  0.3591E+02  0.4426E+02
     -8.945  0.3623E+02  0.4600E+02
     -8.897  0.4247E+02  0.4803E+02
     -8.849  0.4249E+02  0.5007E+02
     -8.801  0.3309E+02  0.5165E+02
     -8.753  0.3408E+02  0.5329E+02
     -8.705  0.5285E+02  0.5582E+02
     -8.658  0.6439E+02  0.5891E+02
     -8.610  0.5544E+02  0.6156E+02
     -8.562  0.4160E+02  0.6356E+02
     -8.514  0.3051E+02  0.6502E+02
     -8.466  0.2164E+02  0.6606E+02
     -8.418  0.2543E+02  0.6728E+02
     -8.370  0.3869E+02  0.6913E+02
     -8.322  0.4398E+02  0.7124E+02
     -8.274  0.4138E+02  0.7322E+02
     -8.226  0.5026E+02  0.7563E+02
     -8.178  0.8179E+02  0.7955E+02
     -8.130  0.1125E+03  0.8494E+02
     -8.082  0.1096E+03  0.9020E+02
     -8.034  0.7915E+02  0.9399E+02
     -7.987  0.5008E+02  0.9639E+02
     -7.939  0.3439E+02  0.9804E+02
     -7.891  0.3063E+02  0.9951E+02
     -7.843  0.2923E+02  0.1009E+03
     -7.795  0.1925E+02  0.1018E+03
     -7.747  0.5588E+01  0.1021E+03
     -7.699 -0.1666E+01  0.1020E+03
     -7.651 -0.2306E+01  0.1019E+03
     -7.603  0.1993E+01  0.1020E+03
     -7.555  0.1151E+02  0.1026E+03
     -7.507  0.2590E+02  0.1038E+03
     -7.459  0.5115E+02  0.1062E+03
     -7.411  0.8868E+02  0.1105E+03
     -7.363  0.1160E+03  0.1161E+03
     -7.316  0.1149E+03  0.1216E+03
     -7.268  0.1029E+03  0.1265E+03
     -7.220  0.1019E+03  0.1314E+03
     -7.172  0.1022E+03  0.1363E+03
     -7.124  0.9159E+02  0.1407E+03
     -7.076  0.8320E+02  0.1447E+03
     -7.028  0.8980E+02  0.1490E+03
     -6.980  0.9939E+02  0.1537E+03
     -6.932  0.9085E+02  0.1581E+03
     -6.884  0.6578E+02  0.1612E+03
     -6.836  0.4546E+02  0.1634E+03
     -6.788  0.4238E+02  0.1654E+03
     -6.740  0.5638E+02  0.1681E+03
     -6.692  0.7409E+02  0.1717E+03
     -6.645  0.7057E+02  0.1751E+03
     -6.597  0.4955E+02  0.1774E+03
     -6.549  0.4935E+02  0.1798E+03
     -6.501  0.7643E+02  0.1835E+03
     -6.453  0.8945E+02  0.1878E+03
     -6.405  0.7273E+02  0.1912E+03
     -6.357  0.5043E+02  0.1937E+03
     -6.309  0.3886E+02  0.1955E+03
     -6.261  0.4094E+02  0.1975E+03
     -6.213  0.4944E+02  0.1999E+03
     -6.165  0.4709E+02  0.2021E+03
     -6.117  0.3231E+02  0.2037E+03
     -6.069  0.2672E+02  0.2049E+03
     -6.021  0.3767E+02  0.2068E+03
     -5.973  0.4112E+02  0.2087E+03
     -5.926  0.2446E+02  0.2099E+03
     -5.878  0.5593E+01  0.2102E+03
     -5.830 -0.1586E+01  0.2101E+03
     -5.782 -0.1493E+01  0.2100E+03
     -5.734 -0.9277E+00  0.2100E+03
     -5.686 -0.1526E+01  0.2099E+03
     -5.638 -0.9119E+00  0.2099E+03
     -5.590  0.6920E+01  0.2102E+03
     -5.542  0.2541E+02  0.2114E+03
     -5.494  0.4641E+02  0.2136E+03
     -5.446  0.5520E+02  0.2163E+03
     -5.398  0.4598E+02  0.2185E+03
     -5.350  0.2621E+02  0.2197E+03
     -5.302  0.8180E+01  0.2201E+03
     -5.255 -0.4261E+00  0.2201E+03
     -5.207 -0.1498E+01  0.2200E+03
     -5.159 -0.5973E+00  0.2200E+03
     -5.111 -0.1187E+00  0.2200E+03
     -5.063 -0.1350E-01  0.2200E+03
     -5.015 -0.9188E-03  0.2200E+03
     -4.967 -0.3815E-04  0.2200E+03
     -4.919 -0.9771E-06  0.2200E+03
     -4.871 -0.1553E-07  0.2200E+03
     -4.823 -0.1538E-09  0.2200E+03
     -4.775 -0.9543E-12  0.2200E+03
     -4.727  0.0000E+00  0.2200E+03
     -4.679  0.0000E+00  0.2200E+03
     -4.631  0.0000E+00  0.2200E+03
     -4.584  0.0000E+00  0.2200E+03
     -4.536 -0.9656E-29  0.2200E+03
     -4.488 -0.2385E-25  0.2200E+03
     -4.440 -0.3708E-22  0.2200E+03
     -4.392 -0.3626E-19  0.2200E+03
     -4.344 -0.2229E-16  0.2200E+03
     -4.296 -0.8604E-14  0.2200E+03
     -4.248 -0.2016E-11  0.2200E+03
     -4.200 -0.3040E-09  0.2200E+03
     -4.152 -0.2859E-07  0.2200E+03
     -4.104 -0.1670E-05  0.2200E+03
     -4.056 -0.6029E-04  0.2200E+03
     -4.008 -0.1332E-02  0.2200E+03
     -3.960 -0.1772E-01  0.2200E+03
     -3.913 -0.1376E+00  0.2200E+03
     -3.865 -0.5778E+00  0.2200E+03
     -3.817 -0.9746E+00  0.2199E+03
     -3.769  0.1335E+01  0.2200E+03
     -3.721  0.9136E+01  0.2204E+03
     -3.673  0.1895E+02  0.2213E+03
     -3.625  0.2522E+02  0.2225E+03
     -3.577  0.2780E+02  0.2239E+03
     -3.529  0.2545E+02  0.2251E+03
     -3.481  0.1595E+02  0.2259E+03
     -3.433  0.4765E+01  0.2261E+03
     -3.385 -0.1312E+01  0.2260E+03
     -3.337 -0.3330E+01  0.2259E+03
     -3.289 -0.1514E+01  0.2258E+03
     -3.242  0.1324E+02  0.2264E+03
     -3.194  0.4155E+02  0.2284E+03
     -3.146  0.5870E+02  0.2312E+03
     -3.098  0.4881E+02  0.2336E+03
     -3.050  0.3019E+02  0.2350E+03
     -3.002  0.2236E+02  0.2361E+03
     -2.954  0.2601E+02  0.2373E+03
     -2.906  0.2930E+02  0.2387E+03
     -2.858  0.2113E+02  0.2397E+03
     -2.810  0.7312E+01  0.2401E+03
     -2.762 -0.3029E+00  0.2401E+03
     -2.714 -0.1214E+01  0.2400E+03
     -2.666 -0.4528E+00  0.2400E+03
     -2.618 -0.8312E-01  0.2400E+03
     -2.570 -0.8708E-02  0.2400E+03
     -2.523 -0.5455E-03  0.2400E+03
     -2.475 -0.2086E-04  0.2400E+03
     -2.427 -0.4922E-06  0.2400E+03
     -2.379 -0.7211E-08  0.2400E+03
     -2.331 -0.1791E-09  0.2400E+03
     -2.283 -0.1173E-07  0.2400E+03
     -2.235 -0.7557E-06  0.2400E+03
     -2.187 -0.3010E-04  0.2400E+03
     -2.139 -0.7350E-03  0.2400E+03
     -2.091 -0.1083E-01  0.2400E+03
     -2.043 -0.9338E-01  0.2400E+03
     -1.995 -0.4376E+00  0.2400E+03
     -1.947 -0.8411E+00  0.2399E+03
     -1.899  0.1061E+01  0.2400E+03
     -1.852  0.8224E+01  0.2404E+03
     -1.804  0.1572E+02  0.2411E+03
     -1.756  0.1382E+02  0.2418E+03
     -1.708  0.4818E+01  0.2420E+03
     -1.660 -0.1268E+01  0.2420E+03
     -1.612 -0.3740E+00  0.2419E+03
     -1.564  0.8631E+01  0.2424E+03
     -1.516  0.2204E+02  0.2434E+03
     -1.468  0.2804E+02  0.2448E+03
     -1.420  0.2317E+02  0.2459E+03
     -1.372  0.1785E+02  0.2467E+03
     -1.324  0.1539E+02  0.2475E+03
     -1.276  0.1269E+02  0.2481E+03
     -1.228  0.1362E+02  0.2487E+03
     -1.181  0.1489E+02  0.2494E+03
     -1.133  0.9467E+01  0.2499E+03
     -1.085  0.5667E+01  0.2502E+03
     -1.037  0.1116E+02  0.2507E+03
     -0.989  0.1578E+02  0.2515E+03
     -0.941  0.1044E+02  0.2520E+03
     -0.893  0.2389E+01  0.2521E+03
     -0.845 -0.7317E+00  0.2520E+03
     -0.797 -0.5804E+00  0.2520E+03
     -0.749 -0.1698E+00  0.2520E+03
     -0.701 -0.1807E+00  0.2520E+03
     -0.653 -0.6696E+00  0.2520E+03
     -0.605 -0.1192E+01  0.2519E+03
     -0.557  0.1087E+01  0.2520E+03
     -0.510  0.1002E+02  0.2524E+03
     -0.462  0.2424E+02  0.2536E+03
     -0.414  0.3570E+02  0.2553E+03
     -0.366  0.3683E+02  0.2571E+03
     -0.318  0.3215E+02  0.2586E+03
     -0.270  0.3023E+02  0.2601E+03
     -0.222  0.2557E+02  0.2613E+03
     -0.174  0.1895E+02  0.2622E+03
     -0.126  0.2393E+02  0.2633E+03
     -0.078  0.3556E+02  0.2650E+03
     -0.030  0.3795E+02  0.2669E+03
      0.018  0.3129E+02  0.2684E+03
      0.066  0.2215E+02  0.2694E+03
      0.114  0.1133E+02  0.2700E+03
      0.161  0.1994E+01  0.2701E+03
      0.209 -0.1772E+01  0.2700E+03
      0.257  0.3030E+00  0.2700E+03
      0.305  0.7987E+01  0.2704E+03
      0.353  0.1551E+02  0.2711E+03
      0.401  0.1290E+02  0.2717E+03
      0.449  0.2821E+01  0.2719E+03
      0.497  0.1377E+00  0.2719E+03
      0.545  0.1621E+02  0.2727E+03
      0.593  0.4366E+02  0.2748E+03
      0.641  0.5913E+02  0.2776E+03
      0.689  0.5543E+02  0.2802E+03
      0.737  0.4579E+02  0.2824E+03
      0.785  0.4104E+02  0.2844E+03
      0.833  0.3896E+02  0.2863E+03
      0.880  0.2814E+02  0.2876E+03
      0.928  0.1053E+02  0.2881E+03
      0.976 -0.1174E+00  0.2881E+03
      1.024 -0.1683E+01  0.2880E+03
      1.072 -0.6591E+00  0.2880E+03
      1.120 -0.1239E+00  0.2880E+03
      1.168 -0.1317E-01  0.2880E+03
      1.216 -0.8360E-03  0.2880E+03
      1.264 -0.3240E-04  0.2880E+03
      1.312 -0.7764E-06  0.2880E+03
      1.360 -0.1158E-07  0.2880E+03
      1.408 -0.1080E-09  0.2880E+03
      1.456 -0.6301E-12  0.2880E+03
      1.504  0.0000E+00  0.2880E+03
      1.551  0.0000E+00  0.2880E+03
      1.599  0.0000E+00  0.2880E+03
      1.647  0.0000E+00  0.2880E+03
      1.695  0.0000E+00  0.2880E+03
      1.743  0.0000E+00  0.2880E+03
      1.791  0.0000E+00  0.2880E+03
      1.839  0.0000E+00  0.2880E+03
