       N       E                     dE             d eps       ncg     rms          rms(c)
DAV:   1    -0.399981031864E+02   -0.39998E+02   -0.93311E-01   312   0.229E+00    0.511E-01
RMM:   2    -0.399821358537E+02    0.15967E-01   -0.47537E-02   291   0.431E-01    0.212E-01
RMM:   3    -0.399810415529E+02    0.10943E-02   -0.58270E-03   314   0.127E-01    0.972E-02
RMM:   4    -0.399810297410E+02    0.11812E-04   -0.43929E-04   259   0.390E-02    0.363E-02
RMM:   5    -0.399811362627E+02   -0.10652E-03   -0.81552E-05   192   0.199E-02    0.839E-03
RMM:   6    -0.399812370636E+02   -0.10080E-03   -0.22663E-05   184   0.923E-03    0.545E-03
RMM:   7    -0.399814184755E+02   -0.18141E-03   -0.36053E-05   179   0.106E-02    0.289E-03
RMM:   8    -0.399815315279E+02   -0.11305E-03   -0.27719E-05   140   0.772E-03    0.170E-03
RMM:   9    -0.399815921340E+02   -0.60606E-04   -0.19347E-05   142   0.769E-03
   1 F= -.39981592E+02 E0= -.39990321E+02  d E =0.261868E-01
