 running on   24 total cores
 distrk:  each k-point on   24 cores,    1 groups
 distr:  one band on    1 cores,   24 groups
 using from now: INCAR     
 vasp.5.4.1 24Jun15 (build Jun 30 2016 10:09:37) gamma-only                     
  
 POSCAR found :  1 types and      20 ions

 ----------------------------------------------------------------------------- 
|                                                                             |
|           W    W    AA    RRRRR   N    N  II  N    N   GGGG   !!!           |
|           W    W   A  A   R    R  NN   N  II  NN   N  G    G  !!!           |
|           W    W  A    A  R    R  N N  N  II  N N  N  G       !!!           |
|           W WW W  AAAAAA  RRRRR   N  N N  II  N  N N  G  GGG   !            |
|           WW  WW  A    A  R   R   N   NN  II  N   NN  G    G                |
|           W    W  A    A  R    R  N    N  II  N    N   GGGG   !!!           |
|                                                                             |
|      For optimal performance we recommend to set                            |
|        NCORE= 4 - approx SQRT( number of cores)                             |
|      NCORE specifies how many cores store one orbital (NPAR=cpu/NCORE).     |
|      This setting can  greatly improve the performance of VASP for DFT.     |
|      The default, NPAR=number of cores might be grossly inefficient         |
|      on modern multi-core architectures or massively parallel machines.     |
|      Do your own testing !!!!                                               |
|      Unfortunately you need to use the default for GW and RPA calculations. |
|      (for HF NCORE is supported but not extensively tested yet)             |
|                                                                             |
 ----------------------------------------------------------------------------- 


 ----------------------------------------------------------------------------- 
|                                                                             |
|  ADVICE TO THIS USER RUNNING 'VASP/VAMP'   (HEAR YOUR MASTER'S VOICE ...):  |
|                                                                             |
|      You have a (more or less) 'large supercell' and for larger cells       |
|      it might be more efficient to use real space projection operators      |
|      So try LREAL= Auto  in the INCAR   file.                               |
|      Mind: If you want to do a very accurate calculations keep the          |
|      reciprocal projection scheme          (i.e. LREAL=.FALSE.)             |
|                                                                             |
 ----------------------------------------------------------------------------- 

 LDA part: xc-table for Ceperly-Alder, standard interpolation
 POSCAR found :  1 types and      20 ions
 found WAVECAR, reading the header
 POSCAR, INCAR and KPOINTS ok, starting setup
 WARNING: small aliasing (wrap around) errors must be expected
 FFT: planning ...
 reading WAVECAR
 the WAVECAR file was read successfully
 initial charge from wavefunction
 entering main loop
       N       E                     dE             d eps       ncg     rms          rms(c)
DAV:   1    -0.399981031864E+02   -0.39998E+02   -0.93311E-01   312   0.229E+00    0.511E-01
RMM:   2    -0.399821358537E+02    0.15967E-01   -0.47537E-02   291   0.431E-01    0.212E-01
RMM:   3    -0.399810415529E+02    0.10943E-02   -0.58270E-03   314   0.127E-01    0.972E-02
RMM:   4    -0.399810297410E+02    0.11812E-04   -0.43929E-04   259   0.390E-02    0.363E-02
RMM:   5    -0.399811362627E+02   -0.10652E-03   -0.81552E-05   192   0.199E-02    0.839E-03
RMM:   6    -0.399812370636E+02   -0.10080E-03   -0.22663E-05   184   0.923E-03    0.545E-03
RMM:   7    -0.399814184755E+02   -0.18141E-03   -0.36053E-05   179   0.106E-02    0.289E-03
RMM:   8    -0.399815315279E+02   -0.11305E-03   -0.27719E-05   140   0.772E-03    0.170E-03
RMM:   9    -0.399815921340E+02   -0.60606E-04   -0.19347E-05   142   0.769E-03
   1 F= -.39981592E+02 E0= -.39990321E+02  d E =0.261868E-01
 writing wavefunctions
