<?xml version="1.0" encoding="ISO-8859-1"?>
<modeling>
 <generator>
  <i name="program" type="string">vasp </i>
  <i name="version" type="string">5.4.1  </i>
  <i name="subversion" type="string">24Jun15 (build Jun 30 2016 10:09:37) gamma-only                       parallel </i>
  <i name="platform" type="string">IFC91_ompi </i>
  <i name="date" type="string">2017 01 22 </i>
  <i name="time" type="string">16:04:50 </i>
 </generator>
 <incar>
  <i type="string" name="PREC">low</i>
  <i type="string" name="ALGO"> Fast</i>
  <i type="int" name="NELM">   200</i>
  <i type="int" name="NELMIN">     8</i>
  <i name="EDIFF">      0.00010000</i>
  <i type="logical" name="LREAL"> F  </i>
  <i type="logical" name="LPLANE"> T  </i>
  <i name="SIGMA">      0.10000000</i>
  <i type="logical" name="LCHARG"> F  </i>
  <v type="int" name="KPOINT_BSE">    -1     0     0     0</v>
  <i type="int" name="NELM">   200</i>
 </incar>
 <kpoints>
  <generation param="Monkhorst-Pack">
   <v type="int" name="divisions">       1        1        1 </v>
   <v name="usershift">      0.00000000       0.00000000       0.00000000 </v>
   <v name="genvec1">      1.00000000       0.00000000       0.00000000 </v>
   <v name="genvec2">      0.00000000       1.00000000       0.00000000 </v>
   <v name="genvec3">      0.00000000       0.00000000       1.00000000 </v>
   <v name="shift">      0.00000000       0.00000000       0.00000000 </v>
  </generation>
  <varray name="kpointlist" >
   <v>       0.00000000       0.00000000       0.00000000 </v>
  </varray>
  <varray name="weights" >
   <v>       1.00000000 </v>
  </varray>
 </kpoints>
 <parameters>
  <separator name="general" >
   <i type="string" name="SYSTEM">unknown system</i>
   <i type="logical" name="LCOMPAT"> F  </i>
  </separator>
  <separator name="electronic" >
   <i type="string" name="PREC">low</i>
   <i name="ENMAX">    172.45300000</i>
   <i name="ENAUG">    356.67000000</i>
   <i name="EDIFF">      0.00010000</i>
   <i type="int" name="IALGO">    68</i>
   <i type="int" name="IWAVPR">    10</i>
   <i type="int" name="NBANDS">   144</i>
   <i name="NELECT">    220.00000000</i>
   <i type="int" name="TURBO">     0</i>
   <i type="int" name="IRESTART">     0</i>
   <i type="int" name="NREBOOT">     0</i>
   <i type="int" name="NMIN">     0</i>
   <i name="EREF">      0.00000000</i>
   <separator name="electronic smearing" >
    <i type="int" name="ISMEAR">     1</i>
    <i name="SIGMA">      0.10000000</i>
    <i name="KSPACING">      0.50000000</i>
    <i type="logical" name="KGAMMA"> T  </i>
   </separator>
   <separator name="electronic projectors" >
    <i type="logical" name="LREAL"> F  </i>
    <v name="ROPT">      0.00000000</v>
    <i type="int" name="LMAXPAW">  -100</i>
    <i type="int" name="LMAXMIX">     2</i>
    <i type="logical" name="NLSPLINE"> F  </i>
   </separator>
   <separator name="electronic startup" >
    <i type="int" name="ISTART">     1</i>
    <i type="int" name="ICHARG">     0</i>
    <i type="int" name="INIWAV">     1</i>
   </separator>
   <separator name="electronic spin" >
    <i type="int" name="ISPIN">     1</i>
    <i type="logical" name="LNONCOLLINEAR"> F  </i>
    <v name="MAGMOM">      1.00000000      1.00000000      1.00000000      1.00000000      1.00000000      1.00000000      1.00000000      1.00000000      1.00000000      1.00000000      1.00000000      1.00000000      1.00000000      1.00000000      1.00000000      1.00000000      1.00000000      1.00000000      1.00000000      1.00000000
</v>
    <i name="NUPDOWN">     -1.00000000</i>
    <i type="logical" name="LSORBIT"> F  </i>
    <v name="SAXIS">      0.00000000      0.00000000      1.00000000</v>
    <i type="logical" name="LSPIRAL"> F  </i>
    <v name="QSPIRAL">      0.00000000      0.00000000      0.00000000</v>
    <i type="logical" name="LZEROZ"> F  </i>
   </separator>
   <separator name="electronic exchange-correlation" >
    <i type="logical" name="LASPH"> F  </i>
    <i type="logical" name="LMETAGGA"> F  </i>
   </separator>
   <separator name="electronic convergence" >
    <i type="int" name="NELM">   200</i>
    <i type="int" name="NELMDL">     0</i>
    <i type="int" name="NELMIN">     8</i>
    <i name="ENINI">    172.45300000</i>
    <separator name="electronic convergence detail" >
     <i type="logical" name="LDIAG"> T  </i>
     <i type="logical" name="LSUBROT"> F  </i>
     <i name="WEIMIN">      0.00000000</i>
     <i name="EBREAK">      0.00000017</i>
     <i name="DEPER">      0.30000000</i>
     <i type="int" name="NRMM">     4</i>
     <i name="TIME">      0.40000000</i>
    </separator>
   </separator>
   <separator name="electronic mixer" >
    <i name="AMIX">      0.40000000</i>
    <i name="BMIX">      1.00000000</i>
    <i name="AMIN">      0.10000000</i>
    <i name="AMIX_MAG">      1.60000000</i>
    <i name="BMIX_MAG">      1.00000000</i>
    <separator name="electronic mixer details" >
     <i type="int" name="IMIX">     4</i>
     <i type="logical" name="MIXFIRST"> F  </i>
     <i type="int" name="MAXMIX">   -45</i>
     <i name="WC">    100.00000000</i>
     <i type="int" name="INIMIX">     1</i>
     <i type="int" name="MIXPRE">     1</i>
     <i type="int" name="MREMOVE">     5</i>
    </separator>
   </separator>
   <separator name="electronic dipolcorrection" >
    <i type="logical" name="LDIPOL"> F  </i>
    <i type="logical" name="LMONO"> F  </i>
    <i type="int" name="IDIPOL">     0</i>
    <i name="EPSILON">      1.00000000</i>
    <v name="DIPOL">   -100.00000000   -100.00000000   -100.00000000</v>
    <i name="EFIELD">      0.00000000</i>
   </separator>
  </separator>
  <separator name="grids" >
   <i type="int" name="NGX">    64</i>
   <i type="int" name="NGY">    64</i>
   <i type="int" name="NGZ">    64</i>
   <i type="int" name="NGXF">    96</i>
   <i type="int" name="NGYF">    96</i>
   <i type="int" name="NGZF">    96</i>
   <i type="logical" name="ADDGRID"> F  </i>
  </separator>
  <separator name="ionic" >
   <i type="int" name="NSW">     0</i>
   <i type="int" name="IBRION">    -1</i>
   <i type="int" name="ISIF">     2</i>
   <i name="PSTRESS">      0.00000000</i>
   <i name="EDIFFG">      0.00100000</i>
   <i type="int" name="NFREE">     0</i>
   <i name="POTIM">      0.50000000</i>
   <i name="SMASS">     -3.00000000</i>
   <i name="SCALEE">      1.00000000</i>
  </separator>
  <separator name="ionic md" >
   <i name="TEBEG">      0.00010000</i>
   <i name="TEEND">      0.00010000</i>
   <i type="int" name="NBLOCK">     1</i>
   <i type="int" name="KBLOCK">     1</i>
   <i type="int" name="NPACO">   256</i>
   <i name="APACO">     16.00000000</i>
  </separator>
  <separator name="symmetry" >
   <i type="int" name="ISYM">     2</i>
   <i name="SYMPREC">      0.00001000</i>
  </separator>
  <separator name="dos" >
   <i type="logical" name="LORBIT"> F  </i>
   <v name="RWIGS">     -1.00000000</v>
   <i type="int" name="NEDOS">   301</i>
   <i name="EMIN">     10.00000000</i>
   <i name="EMAX">    -10.00000000</i>
   <i name="EFERMI">      0.00000000</i>
  </separator>
  <separator name="writing" >
   <i type="int" name="NWRITE">     2</i>
   <i type="logical" name="LWAVE"> T  </i>
   <i type="logical" name="LCHARG"> F  </i>
   <i type="logical" name="LPARD"> F  </i>
   <i type="logical" name="LVTOT"> F  </i>
   <i type="logical" name="LVHAR"> F  </i>
   <i type="logical" name="LELF"> F  </i>
   <i type="logical" name="LOPTICS"> F  </i>
   <v name="STM">      0.00000000      0.00000000      0.00000000      0.00000000      0.00000000      0.00000000      0.00000000</v>
  </separator>
  <separator name="performance" >
   <i type="int" name="NPAR">    24</i>
   <i type="int" name="NSIM">     4</i>
   <i type="int" name="NBLK">    -1</i>
   <i type="logical" name="LPLANE"> T  </i>
   <i type="logical" name="LSCALAPACK"> F  </i>
   <i type="logical" name="LSCAAWARE"> F  </i>
   <i type="logical" name="LSCALU"> F  </i>
   <i type="logical" name="LASYNC"> F  </i>
   <i type="logical" name="LORBITALREAL"> F  </i>
  </separator>
  <separator name="miscellaneous" >
   <i type="int" name="IDIOT">     3</i>
   <i type="logical" name="LMUSIC"> F  </i>
   <v name="POMASS">    196.96600000</v>
   <v name="DARWINR">      0.00000000</v>
   <v name="DARWINV">      1.00000000</v>
   <i type="logical" name="LCORR"> T  </i>
  </separator>
  <i type="logical" name="GGA_COMPAT"> T  </i>
  <i type="logical" name="LBERRY"> F  </i>
  <i type="int" name="ICORELEVEL">     0</i>
  <i type="logical" name="LDAU"> F  </i>
  <i type="int" name="I_CONSTRAINED_M">     0</i>
  <separator name="electronic exchange-correlation" >
   <i type="string" name="GGA">--</i>
   <i type="int" name="VOSKOWN">     0</i>
   <i type="logical" name="LHFCALC"> F  </i>
   <i type="string" name="PRECFOCK"></i>
   <i type="logical" name="LSYMGRAD"> F  </i>
   <i type="logical" name="LHFONE"> F  </i>
   <i type="logical" name="LRHFCALC"> F  </i>
   <i type="logical" name="LTHOMAS"> F  </i>
   <i type="logical" name="LMODELHF"> F  </i>
   <i name="ENCUT4O">     -1.00000000</i>
   <i type="int" name="EXXOEP">     0</i>
   <i type="int" name="FOURORBIT">     0</i>
   <i name="AEXX">      0.00000000</i>
   <i name="HFALPHA">      0.00000000</i>
   <i name="MCALPHA">      0.00000000</i>
   <i name="ALDAX">      1.00000000</i>
   <i name="AGGAX">      1.00000000</i>
   <i name="ALDAC">      1.00000000</i>
   <i name="AGGAC">      1.00000000</i>
   <i type="int" name="NKREDX">     1</i>
   <i type="int" name="NKREDY">     1</i>
   <i type="int" name="NKREDZ">     1</i>
   <i type="logical" name="SHIFTRED"> F  </i>
   <i type="logical" name="ODDONLY"> F  </i>
   <i type="logical" name="EVENONLY"> F  </i>
   <i type="int" name="LMAXFOCK">     0</i>
   <i type="int" name="NMAXFOCKAE">     0</i>
   <i type="logical" name="LFOCKAEDFT"> F  </i>
   <i name="HFSCREEN">      0.00000000</i>
   <i name="HFSCREENC">      0.00000000</i>
   <i type="int" name="NBANDSGWLOW">     0</i>
  </separator>
  <separator name="vdW DFT" >
   <i type="logical" name="LUSE_VDW"> F  </i>
   <i name="Zab_VDW">     -0.84910000</i>
   <i name="PARAM1">      0.12340000</i>
   <i name="PARAM2">      1.00000000</i>
   <i name="PARAM3">      0.00000000</i>
  </separator>
  <separator name="model GW" >
   <i type="int" name="MODEL_GW">     0</i>
   <i name="MODEL_EPS0">    240.00000000</i>
   <i name="MODEL_ALPHA">      1.00000000</i>
  </separator>
  <separator name="linear response parameters" >
   <i type="logical" name="LEPSILON"> F  </i>
   <i type="logical" name="LRPA"> F  </i>
   <i type="logical" name="LNABLA"> F  </i>
   <i type="logical" name="LVEL"> F  </i>
   <i type="int" name="KINTER">     0</i>
   <i name="CSHIFT">      0.10000000</i>
   <i name="OMEGAMAX">     -1.00000000</i>
   <i name="DEG_THRESHOLD">      0.00200000</i>
  </separator>
  <separator name="orbital magnetization" >
   <i type="logical" name="NUCIND"> F  </i>
   <v name="MAGPOS">      0.00000000      0.00000000      0.00000000</v>
   <i type="logical" name="LNICSALL"> T  </i>
   <i type="logical" name="ORBITALMAG"> F  </i>
   <i type="logical" name="LMAGBLOCH"> F  </i>
   <i type="logical" name="LCHIMAG"> F  </i>
   <i type="logical" name="LGAUGE"> T  </i>
   <i type="int" name="MAGATOM">     0</i>
   <v name="MAGDIPOL">      0.00000000      0.00000000      0.00000000</v>
   <v name="AVECCONST">      0.00000000      0.00000000      0.00000000</v>
  </separator>
  <separator name="response functions" >
   <i type="logical" name="LADDER"> F  </i>
   <i type="logical" name="LFXC"> F  </i>
   <i type="logical" name="LHARTREE"> T  </i>
   <i type="int" name="IBSE">     0</i>
   <v type="int" name="KPOINT">    -1     0     0     0</v>
   <i type="logical" name="LTCTE"> F  </i>
   <i type="logical" name="LTETE"> F  </i>
   <i type="logical" name="LTRIPLET"> F  </i>
   <i type="logical" name="LFXCEPS"> F  </i>
   <i type="logical" name="LFXHEG"> F  </i>
   <i type="int" name="NATURALO">     0</i>
   <i type="logical" name="L2ORDER"> F  </i>
   <i type="logical" name="LUSEW"> F  </i>
   <i name="ENCUTGW">     -2.00000000</i>
   <i name="ENCUTGWSOFT">     -2.00000000</i>
   <i name="ENCUTLF">     -1.00000000</i>
   <i type="int" name="LMAXMP2">    -1</i>
   <i name="SCISSOR">      0.00000000</i>
   <i type="int" name="NOMEGA">     0</i>
   <i type="int" name="NOMEGAR">     0</i>
   <i type="int" name="NBANDSGW">    -1</i>
   <i type="int" name="NBANDSO">    -1</i>
   <i type="int" name="NBANDSV">    -1</i>
   <i type="int" name="NELM">   200</i>
   <i type="int" name="NELMHF">     1</i>
   <i type="int" name="DIM">     3</i>
   <i type="int" name="ANTIRES">     0</i>
   <i name="OMEGAMAX">    -30.00000000</i>
   <i name="OMEGAMIN">    -30.00000000</i>
   <i name="OMEGATL">   -200.00000000</i>
   <i type="int" name="OMEGAGRID">     0</i>
   <i name="CSHIFT">     -0.10000000</i>
   <i type="logical" name="SELFENERGY"> F  </i>
   <i type="logical" name="LSPECTRAL"> F  </i>
   <i type="logical" name="LSPECTRALGW"> F  </i>
   <i type="logical" name="LSINGLES"> F  </i>
   <i type="logical" name="LFERMIGW"> F  </i>
   <i type="logical" name="ODDONLYGW"> F  </i>
   <i type="logical" name="EVENONLYGW"> F  </i>
   <i type="int" name="NKREDLFX">     1</i>
   <i type="int" name="NKREDLFY">     1</i>
   <i type="int" name="NKREDLFZ">     1</i>
   <i type="int" name="MAXMEM">  1800</i>
   <i type="int" name="TELESCOPE">     0</i>
   <i type="int" name="TAUPAR">     1</i>
   <i type="int" name="OMEGAPAR">    -1</i>
   <i name="LAMBDA">      1.00000000</i>
  </separator>
  <separator name="External order field" >
   <i name="OFIELD_KAPPA">      0.00000000</i>
   <v name="OFIELD_K">      0.00000000      0.00000000      0.00000000</v>
   <i name="OFIELD_Q6_NEAR">      0.00000000</i>
   <i name="OFIELD_Q6_FAR">      0.00000000</i>
   <i name="OFIELD_A">      0.00000000</i>
  </separator>
  <separator name="solvation model" >
   <i type="logical" name="LSOL"> F  </i>
  </separator>
 </parameters>
 <atominfo>
  <atoms>      20 </atoms>
  <types>       1 </types>
  <array name="atoms" >
   <dimension dim="1">ion</dimension>
   <field type="string">element</field>
   <field type="int">atomtype</field>
   <set>
    <rc><c>Au</c><c>   1</c></rc>
    <rc><c>Au</c><c>   1</c></rc>
    <rc><c>Au</c><c>   1</c></rc>
    <rc><c>Au</c><c>   1</c></rc>
    <rc><c>Au</c><c>   1</c></rc>
    <rc><c>Au</c><c>   1</c></rc>
    <rc><c>Au</c><c>   1</c></rc>
    <rc><c>Au</c><c>   1</c></rc>
    <rc><c>Au</c><c>   1</c></rc>
    <rc><c>Au</c><c>   1</c></rc>
    <rc><c>Au</c><c>   1</c></rc>
    <rc><c>Au</c><c>   1</c></rc>
    <rc><c>Au</c><c>   1</c></rc>
    <rc><c>Au</c><c>   1</c></rc>
    <rc><c>Au</c><c>   1</c></rc>
    <rc><c>Au</c><c>   1</c></rc>
    <rc><c>Au</c><c>   1</c></rc>
    <rc><c>Au</c><c>   1</c></rc>
    <rc><c>Au</c><c>   1</c></rc>
    <rc><c>Au</c><c>   1</c></rc>
   </set>
  </array>
  <array name="atomtypes" >
   <dimension dim="1">type</dimension>
   <field type="int">atomspertype</field>
   <field type="string">element</field>
   <field>mass</field>
   <field>valence</field>
   <field type="string">pseudopotential</field>
   <set>
    <rc><c>  20</c><c>Au</c><c>    196.96600000</c><c>     11.00000000</c><c>  PAW Au                                </c></rc>
   </set>
  </array>
 </atominfo>
 <structure name="initialpos" >
  <crystal>
   <varray name="basis" >
    <v>      20.00000000       0.00000000       0.00000000 </v>
    <v>       0.00000000      20.00000000       0.00000000 </v>
    <v>       0.00000000       0.00000000      20.00000000 </v>
   </varray>
   <i name="volume">   8000.00000000 </i>
   <varray name="rec_basis" >
    <v>       0.05000000       0.00000000       0.00000000 </v>
    <v>       0.00000000       0.05000000       0.00000000 </v>
    <v>       0.00000000       0.00000000       0.05000000 </v>
   </varray>
  </crystal>
  <varray name="positions" >
   <v>       0.61470091       0.46975912       0.62133171 </v>
   <v>       0.61917377       0.56019672       0.50309478 </v>
   <v>       0.54959886       0.43850007       0.50167624 </v>
   <v>       0.53270814       0.60583825       0.62441167 </v>
   <v>       0.47501859       0.56277917       0.50276414 </v>
   <v>       0.47344224       0.47321532       0.61806946 </v>
   <v>       0.68215908       0.43650755       0.50150038 </v>
   <v>       0.41393649       0.44010630       0.50139508 </v>
   <v>       0.53624941       0.51335451       0.72844603 </v>
   <v>       0.81799020       0.43716697       0.50056765 </v>
   <v>       0.62316331       0.71339747       0.62445002 </v>
   <v>       0.69853948       0.67623884       0.50318938 </v>
   <v>       0.62238318       0.78818453       0.51256499 </v>
   <v>       0.62139777       0.63009853       0.73128122 </v>
   <v>       0.70764655       0.60303588       0.62289475 </v>
   <v>       0.61652393       0.53543987       0.83248920 </v>
   <v>       0.69605768       0.51043838       0.72544458 </v>
   <v>       0.75750855       0.47005287       0.61492417 </v>
   <v>       0.76014883       0.55962107       0.50161297 </v>
   <v>       0.54601877       0.67616437       0.50429826 </v>
  </varray>
 </structure>
 <calculation>
  <scstep>
   <time name="dav">    3.78    3.78</time>
   <time name="total">    3.95    3.95</time>
   <energy>
    <i name="alphaZ">     93.44377350 </i>
    <i name="ewald">  31059.67721869 </i>
    <i name="hartreedc"> -48702.94480248 </i>
    <i name="XCdc">    279.84853796 </i>
    <i name="pawpsdc">  15789.74758993 </i>
    <i name="pawaedc"> -15356.42266165 </i>
    <i name="eentropy">      0.02536057 </i>
    <i name="bandstr">  -1716.79667431 </i>
    <i name="atom">  18513.42355461 </i>
    <i name="e_fr_energy">    -39.99810319 </i>
    <i name="e_wo_entrp">    -40.02346376 </i>
    <i name="e_0_energy">    -40.00655671 </i>
   </energy>
  </scstep>
  <scstep>
   <time name="diag">    0.26    0.26</time>
   <time name="diis">    3.23    3.23</time>
   <time name="orth">    0.02    0.02</time>
   <time name="total">    3.67    3.67</time>
   <energy>
    <i name="e_fr_energy">    -39.98213585 </i>
    <i name="e_wo_entrp">    -40.00815132 </i>
    <i name="e_0_energy">    -39.99080768 </i>
   </energy>
  </scstep>
  <scstep>
   <time name="diag">    0.26    0.26</time>
   <time name="diis">    3.53    3.53</time>
   <time name="orth">    0.02    0.02</time>
   <time name="total">    3.97    3.98</time>
   <energy>
    <i name="e_fr_energy">    -39.98104155 </i>
    <i name="e_wo_entrp">    -40.00719781 </i>
    <i name="e_0_energy">    -39.98976031 </i>
   </energy>
  </scstep>
  <scstep>
   <time name="diag">    0.26    0.26</time>
   <time name="diis">    3.09    3.09</time>
   <time name="orth">    0.02    0.02</time>
   <time name="total">    3.53    3.53</time>
   <energy>
    <i name="e_fr_energy">    -39.98102974 </i>
    <i name="e_wo_entrp">    -40.00724224 </i>
    <i name="e_0_energy">    -39.98976724 </i>
   </energy>
  </scstep>
  <scstep>
   <time name="diag">    0.26    0.26</time>
   <time name="diis">    2.18    2.18</time>
   <time name="orth">    0.02    0.02</time>
   <time name="total">    2.62    2.62</time>
   <energy>
    <i name="e_fr_energy">    -39.98113626 </i>
    <i name="e_wo_entrp">    -40.00732757 </i>
    <i name="e_0_energy">    -39.98986670 </i>
   </energy>
  </scstep>
  <scstep>
   <time name="diag">    0.26    0.26</time>
   <time name="diis">    2.12    2.12</time>
   <time name="orth">    0.02    0.02</time>
   <time name="total">    2.56    2.56</time>
   <energy>
    <i name="e_fr_energy">    -39.98123706 </i>
    <i name="e_wo_entrp">    -40.00742944 </i>
    <i name="e_0_energy">    -39.98996786 </i>
   </energy>
  </scstep>
  <scstep>
   <time name="diag">    0.26    0.26</time>
   <time name="diis">    2.00    2.00</time>
   <time name="orth">    0.02    0.02</time>
   <time name="total">    2.44    2.44</time>
   <energy>
    <i name="e_fr_energy">    -39.98141848 </i>
    <i name="e_wo_entrp">    -40.00760396 </i>
    <i name="e_0_energy">    -39.99014697 </i>
   </energy>
  </scstep>
  <scstep>
   <time name="diag">    0.26    0.26</time>
   <time name="diis">    1.85    1.85</time>
   <time name="orth">    0.02    0.02</time>
   <time name="total">    2.29    2.29</time>
   <energy>
    <i name="e_fr_energy">    -39.98153153 </i>
    <i name="e_wo_entrp">    -40.00771886 </i>
    <i name="e_0_energy">    -39.99026064 </i>
   </energy>
  </scstep>
  <scstep>
   <time name="diag">    0.26    0.26</time>
   <time name="diis">    1.92    1.92</time>
   <time name="orth">    0.02    0.02</time>
   <time name="total">    2.24    2.24</time>
   <energy>
    <i name="alphaZ">     93.44377350 </i>
    <i name="ewald">  31059.67721869 </i>
    <i name="hartreedc"> -48705.16150233 </i>
    <i name="XCdc">    279.85597751 </i>
    <i name="pawpsdc">  15789.90051079 </i>
    <i name="pawaedc"> -15356.57932287 </i>
    <i name="eentropy">      0.02618677 </i>
    <i name="bandstr">  -1714.56798879 </i>
    <i name="atom">  18513.42355461 </i>
    <i name="e_fr_energy">    -39.98159213 </i>
    <i name="e_wo_entrp">    -40.00777890 </i>
    <i name="e_0_energy">    -39.99032106 </i>
   </energy>
  </scstep>
  <structure>
   <crystal>
    <varray name="basis" >
     <v>      20.00000000       0.00000000       0.00000000 </v>
     <v>       0.00000000      20.00000000       0.00000000 </v>
     <v>       0.00000000       0.00000000      20.00000000 </v>
    </varray>
    <i name="volume">   8000.00000000 </i>
    <varray name="rec_basis" >
     <v>       0.05000000       0.00000000       0.00000000 </v>
     <v>       0.00000000       0.05000000       0.00000000 </v>
     <v>       0.00000000       0.00000000       0.05000000 </v>
    </varray>
   </crystal>
   <varray name="positions" >
    <v>       0.61470091       0.46975912       0.62133171 </v>
    <v>       0.61917377       0.56019672       0.50309478 </v>
    <v>       0.54959886       0.43850007       0.50167624 </v>
    <v>       0.53270814       0.60583825       0.62441167 </v>
    <v>       0.47501859       0.56277917       0.50276414 </v>
    <v>       0.47344224       0.47321532       0.61806946 </v>
    <v>       0.68215908       0.43650755       0.50150038 </v>
    <v>       0.41393649       0.44010630       0.50139508 </v>
    <v>       0.53624941       0.51335451       0.72844603 </v>
    <v>       0.81799020       0.43716697       0.50056765 </v>
    <v>       0.62316331       0.71339747       0.62445002 </v>
    <v>       0.69853948       0.67623884       0.50318938 </v>
    <v>       0.62238318       0.78818453       0.51256499 </v>
    <v>       0.62139777       0.63009853       0.73128122 </v>
    <v>       0.70764655       0.60303588       0.62289475 </v>
    <v>       0.61652393       0.53543987       0.83248920 </v>
    <v>       0.69605768       0.51043838       0.72544458 </v>
    <v>       0.75750855       0.47005287       0.61492417 </v>
    <v>       0.76014883       0.55962107       0.50161297 </v>
    <v>       0.54601877       0.67616437       0.50429826 </v>
   </varray>
  </structure>
  <varray name="forces" >
   <v>       0.03824387      -0.00628175       0.00075641 </v>
   <v>       0.01544015       0.00883570      -0.03836463 </v>
   <v>      -0.23379820      -0.08337442      -0.09706692 </v>
   <v>      -0.06529788      -0.11062619      -0.13428244 </v>
   <v>      -0.07800645      -0.15649650       0.04373579 </v>
   <v>      -0.08936563       0.07086842       0.04419872 </v>
   <v>       0.18802440      -0.09643455      -0.13651006 </v>
   <v>       0.03872399       0.02681422      -0.04227072 </v>
   <v>      -0.05577198       0.07802702       0.01048911 </v>
   <v>      -0.01833303      -0.01252743      -0.16423131 </v>
   <v>       0.00785787      -0.00562506       0.10934082 </v>
   <v>      -0.08304221       0.16642623       0.01519027 </v>
   <v>       0.09977611      -0.05063903       0.09845440 </v>
   <v>       0.03553959      -0.09833127       0.08660672 </v>
   <v>      -0.04080040       0.03157298       0.01256125 </v>
   <v>       0.14756436       0.01237768      -0.07053201 </v>
   <v>      -0.20434025       0.03768002       0.29851078 </v>
   <v>      -0.05827146       0.10861114       0.12056220 </v>
   <v>       0.19100205      -0.12572211      -0.10554406 </v>
   <v>       0.16485511       0.20484490      -0.05160433 </v>
  </varray>
  <varray name="stress" >
   <v>     -50.24190579      -0.25023576       0.06010762 </v>
   <v>      -0.25023580     -49.85223896       0.09262407 </v>
   <v>       0.06010764       0.09262411     -49.60283909 </v>
  </varray>
  <energy>
   <i name="e_fr_energy">    -39.98159213 </i>
   <i name="e_wo_entrp">    -39.99032106 </i>
   <i name="e_0_energy">      0.02618677 </i>
  </energy>
  <time name="totalsc">   31.90   32.13</time>
  <eigenvalues>
   <array>
    <dimension dim="1">band</dimension>
    <dimension dim="2">kpoint</dimension>
    <dimension dim="3">spin</dimension>
    <field>eigene</field>
    <field>occ</field>
    <set>
     <set comment="spin 1">
      <set comment="kpoint 1">
       <r>  -11.5398    1.0000 </r>
       <r>  -10.7171    1.0000 </r>
       <r>  -10.6595    1.0000 </r>
       <r>  -10.6346    1.0000 </r>
       <r>  -10.3745    1.0000 </r>
       <r>  -10.1985    1.0000 </r>
       <r>  -10.1826    1.0000 </r>
       <r>  -10.0341    1.0000 </r>
       <r>   -9.9370    1.0000 </r>
       <r>   -9.9170    1.0000 </r>
       <r>   -9.8822    1.0000 </r>
       <r>   -9.8384    1.0000 </r>
       <r>   -9.8198    1.0000 </r>
       <r>   -9.3126    1.0000 </r>
       <r>   -9.3050    1.0000 </r>
       <r>   -9.2503    1.0000 </r>
       <r>   -9.2236    1.0000 </r>
       <r>   -9.1728    1.0000 </r>
       <r>   -9.1515    1.0000 </r>
       <r>   -9.1235    1.0000 </r>
       <r>   -9.0782    1.0000 </r>
       <r>   -9.0317    1.0000 </r>
       <r>   -8.9694    1.0000 </r>
       <r>   -8.9128    1.0000 </r>
       <r>   -8.8716    1.0000 </r>
       <r>   -8.8454    1.0000 </r>
       <r>   -8.7399    1.0000 </r>
       <r>   -8.7117    1.0000 </r>
       <r>   -8.6892    1.0000 </r>
       <r>   -8.6628    1.0000 </r>
       <r>   -8.6344    1.0000 </r>
       <r>   -8.5599    1.0000 </r>
       <r>   -8.5325    1.0000 </r>
       <r>   -8.4010    1.0000 </r>
       <r>   -8.3908    1.0000 </r>
       <r>   -8.3223    1.0000 </r>
       <r>   -8.2989    1.0000 </r>
       <r>   -8.2257    1.0000 </r>
       <r>   -8.2011    1.0000 </r>
       <r>   -8.1666    1.0000 </r>
       <r>   -8.1592    1.0000 </r>
       <r>   -8.1423    1.0000 </r>
       <r>   -8.1317    1.0000 </r>
       <r>   -8.1187    1.0000 </r>
       <r>   -8.1115    1.0000 </r>
       <r>   -8.0797    1.0000 </r>
       <r>   -8.0531    1.0000 </r>
       <r>   -8.0126    1.0000 </r>
       <r>   -7.9752    1.0000 </r>
       <r>   -7.8925    1.0000 </r>
       <r>   -7.8455    1.0000 </r>
       <r>   -7.5442    1.0000 </r>
       <r>   -7.4789    1.0000 </r>
       <r>   -7.4330    1.0000 </r>
       <r>   -7.4127    1.0000 </r>
       <r>   -7.4093    1.0000 </r>
       <r>   -7.3889    1.0000 </r>
       <r>   -7.3743    1.0000 </r>
       <r>   -7.3681    1.0000 </r>
       <r>   -7.3365    1.0000 </r>
       <r>   -7.3228    1.0000 </r>
       <r>   -7.3153    1.0000 </r>
       <r>   -7.2871    1.0000 </r>
       <r>   -7.2526    1.0000 </r>
       <r>   -7.2313    1.0000 </r>
       <r>   -7.2155    1.0000 </r>
       <r>   -7.2048    1.0000 </r>
       <r>   -7.1956    1.0000 </r>
       <r>   -7.1753    1.0000 </r>
       <r>   -7.1374    1.0000 </r>
       <r>   -7.1212    1.0000 </r>
       <r>   -7.1049    1.0000 </r>
       <r>   -7.0616    1.0000 </r>
       <r>   -7.0454    1.0000 </r>
       <r>   -7.0185    1.0000 </r>
       <r>   -7.0075    1.0000 </r>
       <r>   -6.9805    1.0000 </r>
       <r>   -6.9696    1.0000 </r>
       <r>   -6.9587    1.0000 </r>
       <r>   -6.9213    1.0000 </r>
       <r>   -6.9004    1.0000 </r>
       <r>   -6.8321    1.0000 </r>
       <r>   -6.8113    1.0000 </r>
       <r>   -6.7367    1.0000 </r>
       <r>   -6.7221    1.0000 </r>
       <r>   -6.6995    1.0000 </r>
       <r>   -6.6837    1.0000 </r>
       <r>   -6.6536    1.0000 </r>
       <r>   -6.6306    1.0000 </r>
       <r>   -6.5319    1.0000 </r>
       <r>   -6.5128    1.0000 </r>
       <r>   -6.5038    1.0000 </r>
       <r>   -6.4950    1.0000 </r>
       <r>   -6.4726    1.0000 </r>
       <r>   -6.4489    1.0000 </r>
       <r>   -6.4070    1.0000 </r>
       <r>   -6.3726    1.0000 </r>
       <r>   -6.3289    1.0000 </r>
       <r>   -6.2497    1.0000 </r>
       <r>   -6.2382    1.0000 </r>
       <r>   -6.1860    1.0000 </r>
       <r>   -6.1607    1.0000 </r>
       <r>   -6.0448    1.0000 </r>
       <r>   -6.0133    1.0000 </r>
       <r>   -5.9819    1.0000 </r>
       <r>   -5.5487    1.0039 </r>
       <r>   -5.4940    1.0204 </r>
       <r>   -5.4782    1.0276 </r>
       <r>   -5.4357    1.0313 </r>
       <r>   -5.3875    0.9167 </r>
       <r>   -3.6906   -0.0000 </r>
       <r>   -3.6053   -0.0000 </r>
       <r>   -3.5341   -0.0000 </r>
       <r>   -3.1935   -0.0000 </r>
       <r>   -3.1833   -0.0000 </r>
       <r>   -3.1674   -0.0000 </r>
       <r>   -3.1231   -0.0000 </r>
       <r>   -3.0483   -0.0000 </r>
       <r>   -2.9529   -0.0000 </r>
       <r>   -2.9035   -0.0000 </r>
       <r>   -1.8115    0.0000 </r>
       <r>   -1.5262    0.0000 </r>
       <r>   -1.4687    0.0000 </r>
       <r>   -1.3527    0.0000 </r>
       <r>   -1.2080    0.0000 </r>
       <r>   -1.0164    0.0000 </r>
       <r>   -0.4828    0.0000 </r>
       <r>   -0.4097    0.0000 </r>
       <r>   -0.3875    0.0000 </r>
       <r>   -0.2905    0.0000 </r>
       <r>   -0.2496    0.0000 </r>
       <r>   -0.1227    0.0000 </r>
       <r>   -0.0845    0.0000 </r>
       <r>   -0.0306    0.0000 </r>
       <r>    0.0470    0.0000 </r>
       <r>    0.3454    0.0000 </r>
       <r>    0.5833    0.0000 </r>
       <r>    0.5945    0.0000 </r>
       <r>    0.6097    0.0000 </r>
       <r>    0.6764    0.0000 </r>
       <r>    0.6918    0.0000 </r>
       <r>    0.7508    0.0000 </r>
       <r>    0.8165    0.0000 </r>
       <r>    0.8390    0.0000 </r>
      </set>
     </set>
    </set>
   </array>
  </eigenvalues>
  <separator name="orbital magnetization" >
   <v name="MAGDIPOLOUT">      0.00000000      0.00000000      0.00000000</v>
  </separator>
  <dos>
   <i name="efermi">     -5.32821148 </i>
   <total>
    <array>
     <dimension dim="1">gridpoints</dimension>
     <dimension dim="2">spin</dimension>
     <field>energy</field>
     <field>total</field>
     <field>integrated</field>
     <set>
      <set comment="spin 1">
       <r>   -12.5398     0.0000     0.0000 </r>
       <r>   -12.4919     0.0000     0.0000 </r>
       <r>   -12.4440     0.0000     0.0000 </r>
       <r>   -12.3960     0.0000     0.0000 </r>
       <r>   -12.3481    -0.0000    -0.0000 </r>
       <r>   -12.3002    -0.0000    -0.0000 </r>
       <r>   -12.2523    -0.0000    -0.0000 </r>
       <r>   -12.2043    -0.0000    -0.0000 </r>
       <r>   -12.1564    -0.0000    -0.0000 </r>
       <r>   -12.1085    -0.0000    -0.0000 </r>
       <r>   -12.0605    -0.0000    -0.0000 </r>
       <r>   -12.0126    -0.0000    -0.0000 </r>
       <r>   -11.9647    -0.0000    -0.0000 </r>
       <r>   -11.9168    -0.0000    -0.0000 </r>
       <r>   -11.8688    -0.0007    -0.0000 </r>
       <r>   -11.8209    -0.0101    -0.0005 </r>
       <r>   -11.7730    -0.0885    -0.0048 </r>
       <r>   -11.7250    -0.4229    -0.0250 </r>
       <r>   -11.6771    -0.8432    -0.0654 </r>
       <r>   -11.6292     0.9384    -0.0205 </r>
       <r>   -11.5812     7.9658     0.3613 </r>
       <r>   -11.5333    15.6225     1.1101 </r>
       <r>   -11.4854    14.1249     1.7871 </r>
       <r>   -11.4375     5.5861     2.0548 </r>
       <r>   -11.3895     0.0037     2.0550 </r>
       <r>   -11.3416    -0.7951     2.0169 </r>
       <r>   -11.2937    -0.2957     2.0027 </r>
       <r>   -11.2457    -0.0518     2.0003 </r>
       <r>   -11.1978    -0.0051     2.0000 </r>
       <r>   -11.1499    -0.0003     2.0000 </r>
       <r>   -11.1019    -0.0000     2.0000 </r>
       <r>   -11.0540    -0.0004     2.0000 </r>
       <r>   -11.0061    -0.0069     1.9996 </r>
       <r>   -10.9582    -0.0691     1.9963 </r>
       <r>   -10.9102    -0.3981     1.9772 </r>
       <r>   -10.8623    -1.1931     1.9201 </r>
       <r>   -10.8144    -0.9201     1.8760 </r>
       <r>   -10.7664     5.4364     2.1365 </r>
       <r>   -10.7185    21.0565     3.1458 </r>
       <r>   -10.6706    37.5622     4.9461 </r>
       <r>   -10.6227    38.9649     6.8137 </r>
       <r>   -10.5747    22.4001     7.8873 </r>
       <r>   -10.5268     4.4250     8.0994 </r>
       <r>   -10.4789    -1.5863     8.0234 </r>
       <r>   -10.4309     3.8084     8.2059 </r>
       <r>   -10.3830    12.7646     8.8177 </r>
       <r>   -10.3351    14.1109     9.4940 </r>
       <r>   -10.2871     9.1901     9.9345 </r>
       <r>   -10.2392    14.1817    10.6142 </r>
       <r>   -10.1913    27.8619    11.9496 </r>
       <r>   -10.1434    28.6800    13.3242 </r>
       <r>   -10.0954    16.7399    14.1266 </r>
       <r>   -10.0475    12.0105    14.7022 </r>
       <r>    -9.9996    18.5317    15.5905 </r>
       <r>    -9.9516    32.5826    17.1521 </r>
       <r>    -9.9037    50.7134    19.5828 </r>
       <r>    -9.8558    59.6006    22.4394 </r>
       <r>    -9.8079    48.8300    24.7798 </r>
       <r>    -9.7599    24.6748    25.9625 </r>
       <r>    -9.7120     4.7568    26.1905 </r>
       <r>    -9.6641    -1.9953    26.0948 </r>
       <r>    -9.6161    -1.5080    26.0226 </r>
       <r>    -9.5682    -0.4705    26.0000 </r>
       <r>    -9.5203    -0.4745    25.9773 </r>
       <r>    -9.4723    -1.5257    25.9042 </r>
       <r>    -9.4244    -1.9598    25.8102 </r>
       <r>    -9.3765     5.0127    26.0505 </r>
       <r>    -9.3286    24.3922    27.2196 </r>
       <r>    -9.2806    45.7289    29.4113 </r>
       <r>    -9.2327    56.0212    32.0964 </r>
       <r>    -9.1848    59.0482    34.9266 </r>
       <r>    -9.1368    60.0471    37.8046 </r>
       <r>    -9.0889    54.7664    40.4295 </r>
       <r>    -9.0410    44.0113    42.5390 </r>
       <r>    -8.9930    35.9137    44.2603 </r>
       <r>    -8.9451    36.2276    45.9967 </r>
       <r>    -8.8972    42.4709    48.0323 </r>
       <r>    -8.8493    42.4887    50.0688 </r>
       <r>    -8.8013    33.0943    51.6549 </r>
       <r>    -8.7534    34.0775    53.2883 </r>
       <r>    -8.7055    52.8505    55.8214 </r>
       <r>    -8.6575    64.3939    58.9077 </r>
       <r>    -8.6096    55.4408    61.5650 </r>
       <r>    -8.5617    41.5976    63.5588 </r>
       <r>    -8.5138    30.5092    65.0210 </r>
       <r>    -8.4658    21.6426    66.0584 </r>
       <r>    -8.4179    25.4313    67.2773 </r>
       <r>    -8.3700    38.6928    69.1318 </r>
       <r>    -8.3220    43.9772    71.2396 </r>
       <r>    -8.2741    41.3788    73.2229 </r>
       <r>    -8.2262    50.2601    75.6318 </r>
       <r>    -8.1782    81.7892    79.5519 </r>
       <r>    -8.1303   112.5045    84.9442 </r>
       <r>    -8.0824   109.5746    90.1961 </r>
       <r>    -8.0345    79.1508    93.9898 </r>
       <r>    -7.9865    50.0798    96.3901 </r>
       <r>    -7.9386    34.3868    98.0382 </r>
       <r>    -7.8907    30.6302    99.5063 </r>
       <r>    -7.8427    29.2300   100.9073 </r>
       <r>    -7.7948    19.2466   101.8298 </r>
       <r>    -7.7469     5.5876   102.0976 </r>
       <r>    -7.6990    -1.6660   102.0177 </r>
       <r>    -7.6510    -2.3064   101.9072 </r>
       <r>    -7.6031     1.9933   102.0027 </r>
       <r>    -7.5552    11.5087   102.5543 </r>
       <r>    -7.5072    25.9034   103.7959 </r>
       <r>    -7.4593    51.1458   106.2473 </r>
       <r>    -7.4114    88.6822   110.4978 </r>
       <r>    -7.3634   115.9954   116.0574 </r>
       <r>    -7.3155   114.8585   121.5625 </r>
       <r>    -7.2676   102.8570   126.4924 </r>
       <r>    -7.2197   101.8700   131.3750 </r>
       <r>    -7.1717   102.2328   136.2749 </r>
       <r>    -7.1238    91.5899   140.6648 </r>
       <r>    -7.0759    83.2010   144.6526 </r>
       <r>    -7.0279    89.7961   148.9565 </r>
       <r>    -6.9800    99.3896   153.7202 </r>
       <r>    -6.9321    90.8505   158.0746 </r>
       <r>    -6.8841    65.7822   161.2275 </r>
       <r>    -6.8362    45.4647   163.4066 </r>
       <r>    -6.7883    42.3772   165.4377 </r>
       <r>    -6.7404    56.3816   168.1401 </r>
       <r>    -6.6924    74.0912   171.6912 </r>
       <r>    -6.6445    70.5709   175.0737 </r>
       <r>    -6.5966    49.5469   177.4484 </r>
       <r>    -6.5486    49.3459   179.8135 </r>
       <r>    -6.5007    76.4262   183.4766 </r>
       <r>    -6.4528    89.4487   187.7638 </r>
       <r>    -6.4049    72.7337   191.2499 </r>
       <r>    -6.3569    50.4283   193.6669 </r>
       <r>    -6.3090    38.8617   195.5296 </r>
       <r>    -6.2611    40.9430   197.4919 </r>
       <r>    -6.2131    49.4359   199.8614 </r>
       <r>    -6.1652    47.0946   202.1186 </r>
       <r>    -6.1173    32.3058   203.6670 </r>
       <r>    -6.0693    26.7156   204.9475 </r>
       <r>    -6.0214    37.6712   206.7530 </r>
       <r>    -5.9735    41.1212   208.7240 </r>
       <r>    -5.9256    24.4631   209.8965 </r>
       <r>    -5.8776     5.5931   210.1646 </r>
       <r>    -5.8297    -1.5857   210.0885 </r>
       <r>    -5.7818    -1.4927   210.0170 </r>
       <r>    -5.7338    -0.9277   209.9725 </r>
       <r>    -5.6859    -1.5264   209.8994 </r>
       <r>    -5.6380    -0.9119   209.8557 </r>
       <r>    -5.5901     6.9205   210.1874 </r>
       <r>    -5.5421    25.4074   211.4051 </r>
       <r>    -5.4942    46.4129   213.6297 </r>
       <r>    -5.4463    55.1953   216.2752 </r>
       <r>    -5.3983    45.9794   218.4789 </r>
       <r>    -5.3504    26.2091   219.7351 </r>
       <r>    -5.3025     8.1802   220.1272 </r>
       <r>    -5.2545    -0.4261   220.1068 </r>
       <r>    -5.2066    -1.4975   220.0350 </r>
       <r>    -5.1587    -0.5973   220.0064 </r>
       <r>    -5.1108    -0.1187   220.0007 </r>
       <r>    -5.0628    -0.0135   220.0000 </r>
       <r>    -5.0149    -0.0009   220.0000 </r>
       <r>    -4.9670    -0.0000   220.0000 </r>
       <r>    -4.9190    -0.0000   220.0000 </r>
       <r>    -4.8711    -0.0000   220.0000 </r>
       <r>    -4.8232    -0.0000   220.0000 </r>
       <r>    -4.7752    -0.0000   220.0000 </r>
       <r>    -4.7273     0.0000   220.0000 </r>
       <r>    -4.6794     0.0000   220.0000 </r>
       <r>    -4.6315     0.0000   220.0000 </r>
       <r>    -4.5835     0.0000   220.0000 </r>
       <r>    -4.5356    -0.0000   220.0000 </r>
       <r>    -4.4877    -0.0000   220.0000 </r>
       <r>    -4.4397    -0.0000   220.0000 </r>
       <r>    -4.3918    -0.0000   220.0000 </r>
       <r>    -4.3439    -0.0000   220.0000 </r>
       <r>    -4.2960    -0.0000   220.0000 </r>
       <r>    -4.2480    -0.0000   220.0000 </r>
       <r>    -4.2001    -0.0000   220.0000 </r>
       <r>    -4.1522    -0.0000   220.0000 </r>
       <r>    -4.1042    -0.0000   220.0000 </r>
       <r>    -4.0563    -0.0001   220.0000 </r>
       <r>    -4.0084    -0.0013   219.9999 </r>
       <r>    -3.9604    -0.0177   219.9991 </r>
       <r>    -3.9125    -0.1376   219.9925 </r>
       <r>    -3.8646    -0.5778   219.9648 </r>
       <r>    -3.8167    -0.9746   219.9181 </r>
       <r>    -3.7687     1.3350   219.9821 </r>
       <r>    -3.7208     9.1362   220.4200 </r>
       <r>    -3.6729    18.9451   221.3280 </r>
       <r>    -3.6249    25.2226   222.5369 </r>
       <r>    -3.5770    27.8018   223.8694 </r>
       <r>    -3.5291    25.4451   225.0890 </r>
       <r>    -3.4811    15.9475   225.8534 </r>
       <r>    -3.4332     4.7653   226.0818 </r>
       <r>    -3.3853    -1.3119   226.0189 </r>
       <r>    -3.3374    -3.3295   225.8593 </r>
       <r>    -3.2894    -1.5137   225.7867 </r>
       <r>    -3.2415    13.2410   226.4214 </r>
       <r>    -3.1936    41.5547   228.4131 </r>
       <r>    -3.1456    58.7007   231.2266 </r>
       <r>    -3.0977    48.8077   233.5659 </r>
       <r>    -3.0498    30.1937   235.0131 </r>
       <r>    -3.0019    22.3592   236.0847 </r>
       <r>    -2.9539    26.0074   237.3313 </r>
       <r>    -2.9060    29.3017   238.7357 </r>
       <r>    -2.8581    21.1289   239.7484 </r>
       <r>    -2.8101     7.3125   240.0989 </r>
       <r>    -2.7622    -0.3029   240.0843 </r>
       <r>    -2.7143    -1.2145   240.0261 </r>
       <r>    -2.6663    -0.4528   240.0044 </r>
       <r>    -2.6184    -0.0831   240.0004 </r>
       <r>    -2.5705    -0.0087   240.0000 </r>
       <r>    -2.5226    -0.0005   240.0000 </r>
       <r>    -2.4746    -0.0000   240.0000 </r>
       <r>    -2.4267    -0.0000   240.0000 </r>
       <r>    -2.3788    -0.0000   240.0000 </r>
       <r>    -2.3308    -0.0000   240.0000 </r>
       <r>    -2.2829    -0.0000   240.0000 </r>
       <r>    -2.2350    -0.0000   240.0000 </r>
       <r>    -2.1871    -0.0000   240.0000 </r>
       <r>    -2.1391    -0.0007   240.0000 </r>
       <r>    -2.0912    -0.0108   239.9994 </r>
       <r>    -2.0433    -0.0934   239.9950 </r>
       <r>    -1.9953    -0.4376   239.9740 </r>
       <r>    -1.9474    -0.8411   239.9337 </r>
       <r>    -1.8995     1.0614   239.9846 </r>
       <r>    -1.8515     8.2242   240.3787 </r>
       <r>    -1.8036    15.7249   241.1324 </r>
       <r>    -1.7557    13.8209   241.7949 </r>
       <r>    -1.7078     4.8184   242.0258 </r>
       <r>    -1.6598    -1.2685   241.9650 </r>
       <r>    -1.6119    -0.3740   241.9471 </r>
       <r>    -1.5640     8.6309   242.3608 </r>
       <r>    -1.5160    22.0364   243.4169 </r>
       <r>    -1.4681    28.0407   244.7609 </r>
       <r>    -1.4202    23.1738   245.8716 </r>
       <r>    -1.3722    17.8534   246.7273 </r>
       <r>    -1.3243    15.3876   247.4649 </r>
       <r>    -1.2764    12.6854   248.0729 </r>
       <r>    -1.2285    13.6160   248.7255 </r>
       <r>    -1.1805    14.8916   249.4392 </r>
       <r>    -1.1326     9.4668   249.8930 </r>
       <r>    -1.0847     5.6668   250.1646 </r>
       <r>    -1.0367    11.1650   250.6997 </r>
       <r>    -0.9888    15.7824   251.4561 </r>
       <r>    -0.9409    10.4381   251.9564 </r>
       <r>    -0.8930     2.3894   252.0710 </r>
       <r>    -0.8450    -0.7317   252.0359 </r>
       <r>    -0.7971    -0.5804   252.0081 </r>
       <r>    -0.7492    -0.1698   251.9999 </r>
       <r>    -0.7012    -0.1807   251.9913 </r>
       <r>    -0.6533    -0.6696   251.9592 </r>
       <r>    -0.6054    -1.1923   251.9020 </r>
       <r>    -0.5574     1.0873   251.9541 </r>
       <r>    -0.5095    10.0226   252.4345 </r>
       <r>    -0.4616    24.2396   253.5963 </r>
       <r>    -0.4137    35.6966   255.3072 </r>
       <r>    -0.3657    36.8341   257.0727 </r>
       <r>    -0.3178    32.1506   258.6136 </r>
       <r>    -0.2699    30.2321   260.0627 </r>
       <r>    -0.2219    25.5653   261.2880 </r>
       <r>    -0.1740    18.9486   262.1962 </r>
       <r>    -0.1261    23.9289   263.3431 </r>
       <r>    -0.0782    35.5628   265.0476 </r>
       <r>    -0.0302    37.9478   266.8664 </r>
       <r>     0.0177    31.2943   268.3664 </r>
       <r>     0.0656    22.1480   269.4279 </r>
       <r>     0.1136    11.3280   269.9708 </r>
       <r>     0.1615     1.9942   270.0664 </r>
       <r>     0.2094    -1.7718   269.9815 </r>
       <r>     0.2574     0.3030   269.9960 </r>
       <r>     0.3053     7.9869   270.3788 </r>
       <r>     0.3532    15.5063   271.1220 </r>
       <r>     0.4011    12.9029   271.7405 </r>
       <r>     0.4491     2.8212   271.8757 </r>
       <r>     0.4970     0.1377   271.8823 </r>
       <r>     0.5449    16.2050   272.6590 </r>
       <r>     0.5929    43.6567   274.7514 </r>
       <r>     0.6408    59.1347   277.5857 </r>
       <r>     0.6887    55.4263   280.2423 </r>
       <r>     0.7367    45.7872   282.4368 </r>
       <r>     0.7846    41.0402   284.4039 </r>
       <r>     0.8325    38.9613   286.2713 </r>
       <r>     0.8804    28.1370   287.6199 </r>
       <r>     0.9284    10.5282   288.1245 </r>
       <r>     0.9763    -0.1174   288.1189 </r>
       <r>     1.0242    -1.6830   288.0382 </r>
       <r>     1.0722    -0.6591   288.0066 </r>
       <r>     1.1201    -0.1239   288.0007 </r>
       <r>     1.1680    -0.0132   288.0000 </r>
       <r>     1.2159    -0.0008   288.0000 </r>
       <r>     1.2639    -0.0000   288.0000 </r>
       <r>     1.3118    -0.0000   288.0000 </r>
       <r>     1.3597    -0.0000   288.0000 </r>
       <r>     1.4077    -0.0000   288.0000 </r>
       <r>     1.4556    -0.0000   288.0000 </r>
       <r>     1.5035     0.0000   288.0000 </r>
       <r>     1.5515     0.0000   288.0000 </r>
       <r>     1.5994     0.0000   288.0000 </r>
       <r>     1.6473     0.0000   288.0000 </r>
       <r>     1.6952     0.0000   288.0000 </r>
       <r>     1.7432     0.0000   288.0000 </r>
       <r>     1.7911     0.0000   288.0000 </r>
       <r>     1.8390     0.0000   288.0000 </r>
      </set>
     </set>
    </array>
   </total>
  </dos>
 </calculation>
 <structure name="finalpos" >
  <crystal>
   <varray name="basis" >
    <v>      20.00000000       0.00000000       0.00000000 </v>
    <v>       0.00000000      20.00000000       0.00000000 </v>
    <v>       0.00000000       0.00000000      20.00000000 </v>
   </varray>
   <i name="volume">   8000.00000000 </i>
   <varray name="rec_basis" >
    <v>       0.05000000       0.00000000       0.00000000 </v>
    <v>       0.00000000       0.05000000       0.00000000 </v>
    <v>       0.00000000       0.00000000       0.05000000 </v>
   </varray>
  </crystal>
  <varray name="positions" >
   <v>       0.61470091       0.46975912       0.62133171 </v>
   <v>       0.61917377       0.56019672       0.50309478 </v>
   <v>       0.54959886       0.43850007       0.50167624 </v>
   <v>       0.53270814       0.60583825       0.62441167 </v>
   <v>       0.47501859       0.56277917       0.50276414 </v>
   <v>       0.47344224       0.47321532       0.61806946 </v>
   <v>       0.68215908       0.43650755       0.50150038 </v>
   <v>       0.41393649       0.44010630       0.50139508 </v>
   <v>       0.53624941       0.51335451       0.72844603 </v>
   <v>       0.81799020       0.43716697       0.50056765 </v>
   <v>       0.62316331       0.71339747       0.62445002 </v>
   <v>       0.69853948       0.67623884       0.50318938 </v>
   <v>       0.62238318       0.78818453       0.51256499 </v>
   <v>       0.62139777       0.63009853       0.73128122 </v>
   <v>       0.70764655       0.60303588       0.62289475 </v>
   <v>       0.61652393       0.53543987       0.83248920 </v>
   <v>       0.69605768       0.51043838       0.72544458 </v>
   <v>       0.75750855       0.47005287       0.61492417 </v>
   <v>       0.76014883       0.55962107       0.50161297 </v>
   <v>       0.54601877       0.67616437       0.50429826 </v>
  </varray>
 </structure>
</modeling>
