unknown system                          
           1
    20.000000    0.000000    0.000000
     0.000000   20.000000    0.000000
     0.000000    0.000000   20.000000
   Au
  20
Direct configuration=     1
   0.61470091  0.46975912  0.62133171
   0.61917377  0.56019672  0.50309478
   0.54959886  0.43850007  0.50167624
   0.53270814  0.60583825  0.62441167
   0.47501859  0.56277917  0.50276414
   0.47344224  0.47321532  0.61806946
   0.68215908  0.43650755  0.50150038
   0.41393649  0.44010630  0.50139508
   0.53624941  0.51335451  0.72844603
   0.81799020  0.43716697  0.50056765
   0.62316331  0.71339747  0.62445002
   0.69853948  0.67623884  0.50318938
   0.62238318  0.78818453  0.51256499
   0.62139777  0.63009853  0.73128122
   0.70764655  0.60303588  0.62289475
   0.61652393  0.53543987  0.83248920
   0.69605768  0.51043838  0.72544458
   0.75750855  0.47005287  0.61492417
   0.76014883  0.55962107  0.50161297
   0.54601877  0.67616437  0.50429826
